 TITLE = "Adapted Mesh"
 VARIABLES = "X", "Y"
 ZONE T = "Domain", N=       11534 E=       21411 
 DATAPACKING=POINT, ZONETYPE=FEQUADRILATERAL
   115.652200000000        13.7382300000000     
   115.652200000000        14.7896122899470     
   115.652200000000        16.1119466301946     
   115.652200000000        17.7762056196718     
   115.652200000000        19.8707748919024     
   115.652200000000        22.5069598288973     
   115.652200000000        25.8246913631930     
   115.652200000000        30.0000000000000     
   115.662200000000        13.7382299995359     
   115.668018825858        14.7896122892128     
   115.675337223113        16.1119466291208     
   115.684547985713        17.7762056181705     
   115.696140280880        19.8707748898631     
   115.710730121936        22.5069598261809     
   115.729091951041        25.8246913596245     
   115.752200000000        29.9999999860769     
   115.673399828472        13.7381680140919     
   115.685735639483        14.7895142355183     
   115.701250516132        16.1118032120201     
   115.720777174854        17.7760051077507     
   115.745352641767        19.8705025240864     
   115.776282854550        22.5065970246292     
   115.815209617297        25.8242147414576     
   115.864198284721        29.9993801212521     
   115.685942965079        13.7380208405238     
   115.705577408853        14.7892814242136     
   115.730271851153        16.1114626932616     
   115.761351695230        17.7755290309168     
   115.800467536330        19.8698558393064     
   115.849697986057        22.5057356159590     
   115.911656241885        25.8230830951912     
   115.989629650791        29.9979083739534     
   115.699989795288        13.7377584865577     
   115.727797844947        14.7888664110430     
   115.762772315610        16.1108556790542     
   115.806790361521        17.7746803687072     
   115.862189702815        19.8687030486325     
   115.931914254552        22.5042000550299     
   116.019665059956        25.8210658043834     
   116.130097952880        29.9952848212987     
   115.715719485094        13.7373423420753     
   115.752680367332        14.7882081193327     
   115.799166449865        16.1098928363082     
   115.857672739635        17.7733342251701     
   115.931306401640        19.8668744981234     
   116.023980320791        22.5017643563534     
   116.140613713805        25.8178659883049     
   116.287394850944        29.9911233619440     
   115.733332011404        13.7367228763120     
   115.780541315993        14.7872281972284     
   115.839916944947        16.1084595645914     
   115.914645714580        17.7713303782630     
   116.008696336946        19.8641525482116     
   116.127066652044        22.4981386157658     
   116.276039864877        25.8131027952463     
   116.463520114043        29.9849286880627     
   115.753050336998        13.7358367414360     
   115.811733391872        14.7858264358984     
   115.885539674818        16.1064092946166     
   115.978430526045        17.7684639105169     
   116.095339213459        19.8602588467511     
   116.242478252190        22.4929520576442     
   116.427657917501        25.8062891313764     
   116.660703369991        29.9760673211394     
   115.775122705272        13.7346031340164     
   115.846649286874        14.7838750138021     
   115.936609005763        16.1035550696879     
   116.049830191411        17.7644734391160     
   116.192325819631        19.8548383412030     
   116.371668092851        22.4857317385317     
   116.597376663580        25.7968036833565     
   116.881427052747        29.9637312266430     
   115.799825009498        13.7329192305196     
   115.885725431758        14.7812112761823     
   115.993763278197        16.0996589847086     
   116.129737169839        17.7590263506510     
   116.300868438246        19.8474392220816     
   116.516250980708        22.4758758310459     
   116.787317500302        25.7838558209852     
   117.128450095023        29.9468921689925     
   115.827463161390        13.7306544701587     
   115.929445742940        14.7776286912037     
   116.057710286885        16.0944189582813     
   116.219141024111        17.7517003072869     
   116.422311253975        19.8374878016325     
   116.678017420766        22.4626201613250     
   116.999832642535        25.7664416369102     
   117.404831613976        29.9242445400459     
   398.020643092415        1.77609895055990     
   3.03053512643567        32.9390438694890     
   115.772205186937        13.6264078534931     
   115.766925280314        13.7158205577528     
   115.837261825925        13.7173231879375     
   116.210441208207        13.5425897390178     
   115.911197053300        13.5940277816556     
   115.850782326420        13.6594337902524     
   115.926678917778        13.7209040521489     
   116.065824843603        13.5499357985916     
   115.973768496636        13.5443882890605     
   115.886144645248        13.6880685056340     
   115.989202530022        13.8021262974586     
   115.968499787583        13.6433985371728     
   115.982311612061        13.3425231554111     
   116.004846835812        13.7333547748842     
   117.375165467227        10.4326350583397     
   115.934841489196        13.4573589126458     
   116.087932535332        13.4279382447069     
   116.147235171263        13.8044894941081     
   118.120104005003        11.2987843243844     
   117.993352298775        9.89200147096087     
   116.904091490509        12.5124543047647     
   117.011628908199        11.1299673780762     
   117.019012054587        9.50223695403949     
   116.379326773721        12.3382670561449     
   116.710823833615        13.1610285923267     
   116.115308969655        13.2321266726887     
   116.300214665566        13.0574705013533     
   116.140217145184        13.6943088607854     
   119.289610267273        10.1533663168484     
   117.383523964580        12.0348854052966     
   116.443158204949        10.3545837988829     
   116.641934409861        11.7992558441008     
   116.113641399966        14.0115511588534     
   116.645499093018        8.26809718460276     
   116.315419002175        13.3565529583424     
   116.098631193599        12.6121482967542     
   116.093229807149        12.9558021053286     
   117.530310472288        12.6782577392201     
   121.360638377238        11.8130354296858     
   120.629481729226        9.30563823400916     
   116.173108533727        11.2084174515684     
   123.034384226470        9.94221683945035     
   116.261477705058        13.8063591620758     
   115.545554857467        9.12489931655017     
   118.024157090983        8.79023949399136     
   116.364387394293        12.6937056665169     
   12.2998662572702        21.2456249162479     
   16.8291973228482        19.3496655350671     
   12.7395809840948        16.2059998084955     
   21.4292241603806        17.8043028263429     
   17.5251116712006        13.7093143295093     
   119.367299895225        13.0620099689809     
   121.168418580414        14.1498172948824     
   122.937574498192        15.9124965903303     
   124.944799672206        12.4305835826842     
   126.460458723365        18.5551244075039     
   387.485637373522        17.7095352779013     
   383.164659500816        17.6378452862167     
   385.705493830923        14.0091363358544     
   381.357083909216        13.3693226861371     
   378.459172285241        17.4408966542196     
   376.419501176358        13.1096830149866     
   373.553690537398        17.3128591595335     
   371.439575165554        12.9915799780252     
   368.591361477989        17.2372914867000     
   366.453663867731        12.9291803281837     
   363.610769521768        17.1932215655924     
   361.463704670408        12.8945348284997     
   358.622908395276        17.1687627310178     
   356.471141118975        12.8760597324437     
   353.631842788987        17.1559765528571     
   351.477171509748        12.8667316959322     
   348.639349358314        17.1496390739814     
   346.482525226151        12.8622524541218     
   343.646247169213        17.1466543091493     
   341.487586440828        12.8602080757106     
   338.652904050531        17.1453229042781     
   336.492528255754        12.8593425181723     
   333.659462977231        17.1447807167885     
   331.497272257493        12.8593237113465     
   328.665780932934        17.1448122476727     
   326.500100156331        12.8623143668220     
   323.670219763813        17.1463235839865     
   321.490387934328        12.8765030865246     
   318.666444371135        17.1516021901996     
   316.435802668063        12.9045923433534     
   313.647179071636        17.1696867003914     
   311.353871072545        13.0138328925913     
   308.589040066311        17.1820885685199     
   306.115306147803        12.9328742346922     
   303.503765138297        17.2153641745092     
   300.896691480542        13.1668708364791     
   298.434530160321        17.2391716313592     
   295.804171651997        13.1432941388216     
   293.344854345504        17.1641391412968     
   290.839349402643        13.0134369801985     
   287.976586329522        16.8875845497287     
   286.893662887855        13.0436305164024     
   283.005593573351        17.3697829272440     
   281.574055453936        12.6906872012760     
   278.207185979156        17.4068302391668     
   276.716725506212        12.8598860018185     
   273.461232250023        16.9996800175009     
   270.612467393311        13.3473449252178     
   268.527181295020        17.2497110361951     
   266.662642574081        13.7702511927939     
   263.515174553798        16.8115592299906     
   260.598596631574        13.6153935362044     
   258.208106968800        17.1455092396965     
   256.146080113925        13.0864129185566     
   253.336012153570        17.0751606702209     
   250.887610696277        13.8114730887128     
   248.253313263856        16.8201589787485     
   245.298960738411        13.4376086077652     
   243.150108343485        17.2337211500573     
   240.527216575486        13.2849098710211     
   237.959779075811        17.1887515357296     
   235.507723928901        13.0206814234889     
   232.931433528725        17.4325802328703     
   230.927864667168        13.0273301895324     
   227.932574337975        17.5483573449758     
   226.310259854538        13.2161309457401     
   223.195806447619        17.4412209897211     
   221.733569381290        12.5465189831121     
   218.486767085816        16.9374416850764     
   215.766433745920        12.9562119823197     
   213.421063305071        17.2522225433183     
   210.957531924800        13.3770190567619     
   208.510544634974        17.4604287134930     
   206.538002091515        14.0274327278179     
   203.383361231185        17.1664563645706     
   201.705685883749        12.6236603735989     
   198.299320745970        17.3234019111417     
   196.648964009511        12.9273388899724     
   193.434063915009        16.9759423919459     
   190.589367743155        13.0649834202863     
   188.335711077255        17.2061156964879     
   185.994943094085        13.0670710386967     
   183.380278520578        17.3357610492782     
   180.945174786625        13.3350765347144     
   178.399980828622        17.4748748559733     
   176.271453652593        13.8416790893676     
   173.263910591902        17.3038334905497     
   171.215952869317        12.9796933813581     
   167.979843647733        17.4543500468134     
   167.219642300847        12.3931531604934     
   163.413003601409        17.6741735210175     
   162.351758171016        12.7676683544977     
   158.697122016317        17.2092729903870     
   156.048579826149        13.7008173554296     
   153.664499505514        17.3574770367329     
   151.746556220453        13.2292241151543     
   148.496056127076        16.8204989966510     
   146.819820777712        13.7356191247592     
   144.005514091813        17.5436606002023     
   142.400162499886        12.7316538310568     
   136.687687597702        11.5851160977247     
   132.350092038223        14.4882514506653     
   116.443892498903        13.6422111873573     
   122.114118361478        7.80401687377287     
   117.622284955911        7.11199827850554     
   114.018751641735        10.0015005054448     
   115.856558999574        12.7800213916901     
   115.447279783837        10.6171875202428     
   111.871968982274        7.77371233947345     
   106.961231236609        8.15924341067033     
   111.075747025242        9.96600801291078     
   99.9430573711363        6.06456619681073     
   32.8070164298207        11.8573042108539     
   28.4193922244793        13.4531914926787     
   25.3870836310906        16.8484955912539     
   23.0683532519531        13.2446515400100     
   12.9881943724106        11.9286427504553     
   7.45836513110593        27.7436663575328     
   7.94082018912592        23.1313967264636     
   11.7727475270136        26.1269522993688     
   16.2478821773782        24.4293796179277     
   8.27296747309478        18.2301014421344     
   20.7404363278126        22.7003070350983     
   118.818889704491        14.5821993149132     
   120.218966481655        16.3509212038756     
   121.706310271114        18.5894098697097     
   122.671073114101        21.9090407917069     
   126.643142952832        23.7995556085215     
   390.288736246912        21.3465700415993     
   385.333371291595        21.6525225261052     
   390.471228538731        15.2618762694875     
   389.625380350492        10.5396935185196     
   384.977903042963        9.23035324973433     
   380.543277881079        21.6588069303907     
   379.391746264753        8.87280957324782     
   375.668595882816        21.5876796056867     
   374.310446273626        8.72353694264720     
   370.727025869279        21.5244120451671     
   369.303721442595        8.65286451632741     
   365.756085663859        21.4819593287200     
   364.307820330283        8.61436206080807     
   360.773076830407        21.4567641627371     
   359.312536290255        8.59330879221721     
   355.784965271329        21.4430030672041     
   354.316664250723        8.58242247107456     
   350.794653504302        21.4359396394578     
   349.320330007542        8.57708970929673     
   345.803408597156        21.4325038716988     
   344.323751741516        8.57460316136799     
   340.811787397234        21.4309206461978     
   339.327065540872        8.57351099423329     
   335.820025229593        21.4302321892457     
   334.330280963247        8.57327928209592     
   330.828204244836        21.4299604805796     
   329.332575731032        8.57603042749944     
   325.836219177104        21.4299494279016     
   324.326993958427        8.59674455968366     
   320.843329569636        21.4303896351195     
   319.278994996236        8.67268056751985     
   315.847728897254        21.4324049457883     
   314.039980546700        8.67797936630958     
   310.844534346296        21.4358100430503     
   309.080187836542        9.39053300085999     
   305.831537582001        21.4421664591238     
   304.448819633149        8.40795534907067     
   300.814813487579        21.4481033377620     
   299.427499200295        8.55933366865841     
   295.788011115176        21.4339471997478     
   294.241866119527        8.30115846033450     
   290.708826492820        21.3838103172895     
   289.038355810878        7.75229653415133     
   285.647504162802        21.4227811770107     
   284.159352488703        8.11144350126038     
   280.678868806723        21.5034762147852     
   279.217943551023        8.52105884587745     
   275.760574979331        21.4485923945763     
   274.277807801942        8.68386643947308     
   270.829796160451        21.4093979809378     
   269.155622565361        8.64250995510708     
   265.840264555007        21.3773953610563     
   264.112518422555        9.41585490225851     
   260.777413094815        21.3746723668873     
   259.526525877621        8.34324294100019     
   255.735132959210        21.4146076777815     
   254.532157911149        8.51408590692384     
   250.742879217007        21.3640074911764     
   249.517751703521        8.58299072864931     
   245.716955160114        21.3792060405925     
   244.263301343539        8.47946508455698     
   240.641693006795        21.4384410463390     
   239.415131987180        9.33757270697466     
   235.563887399399        21.4903190726934     
   234.528912558227        9.21035280072200     
   230.543700477576        21.5673402773831     
   229.676025843094        8.49451161008568     
   225.607456801842        21.5714892031051     
   224.966685809543        8.60583776873724     
   220.735025036426        21.4584975464220     
   220.378212708979        9.69474285250028     
   215.811743615659        21.4187454333444     
   213.228316956734        9.84977988507717     
   210.828549824322        21.5065081746618     
   209.189942268401        9.40201947143748     
   205.808258001039        21.5108468365695     
   204.353325238656        8.47094603473803     
   200.761243074940        21.4805829716024     
   199.258659011166        8.58727500315962     
   195.762473822369        21.4307624475144     
   194.507448264234        8.15162442137754     
   190.773539727046        21.4099871037897     
   188.974252638305        9.22991070300295     
   185.771809542260        21.4826181261131     
   183.403021006987        9.75241591148390     
   180.775183659893        21.5504997519904     
   179.311438121011        9.33271540071674     
   175.740114083638        21.5664142085100     
   174.703708037954        8.05241424534709     
   170.668788842430        21.5808153059832     
   170.046922313663        9.14757092220048     
   165.710818994656        21.6362262250651     
   164.524278424368        8.24029338389702     
   160.870557737460        21.5977612134816     
   158.511690285397        8.33865213834236     
   155.966845953482        21.5605046270334     
   154.831380438855        9.77125781342355     
   150.966308503705        21.5644554886654     
   149.994363918719        8.33944415699191     
   145.869423917569        21.7561194862465     
   144.940647937985        8.63980528810703     
   140.489795341006        21.2686966516947     
   138.109481568092        16.4354327067175     
   139.717231843208        7.98304010782293     
   134.520686069188        8.34057068124386     
   129.389503314235        9.35900050214706     
   117.264834818155        13.7957872407649     
   124.737690865005        8.16111085613586     
   119.546273479537        6.65091948857656     
   112.413501442541        10.9781009569726     
   113.450276446444        11.4109437254902     
   115.853047907097        11.9338841369339     
   114.981759700809        6.62156935544687     
   114.835384330827        11.5919607233896     
   109.583105102394        7.04720140369254     
   110.027429695919        10.9604002529287     
   111.180643440039        11.2559791844365     
   108.749890792875        10.2850567894291     
   107.172155173039        10.5977902414569     
   104.837912716845        7.65848771407617     
   105.372966756932        9.77077266676459     
   103.408427665632        8.93914345384815     
   101.994071489338        8.22808906639355     
   99.9409846711430        8.31586122517565     
   97.9249293723151        7.75193897245512     
   95.4880737940274        7.83814139105061     
   94.4771301120156        7.03193702287306     
   44.1064611667383        8.92160082694267     
   42.0664298434036        11.4928944043290     
   39.7188159622461        7.95257623549162     
   37.3418713594755        12.8991609073521     
   34.9957011219525        8.23560459037153     
   33.0176036526383        16.1566805293836     
   30.2935047279871        8.47908909081260     
   29.0028498207888        18.7565398638489     
   25.3908226142706        8.79020575386311     
   25.0383672256918        20.9640541934626     
   20.2793077665538        8.84474726196591     
   15.3518131822963        8.58131947133741     
   8.52772146264393        12.7713940031777     
   10.8027111872428        8.37355807510776     
   6.95033339708179        8.30721627922916     
   3.49553891055953        29.3676092560346     
   6.66512505820143        31.9969369280569     
   3.81957692277049        25.0264050125851     
   11.0574937616419        30.8133567637796     
   4.02357515692251        20.4162749667652     
   15.6343228030801        29.3986405267580     
   20.2147415010517        27.7540063629182     
   117.846920502498        16.4108174802874     
   118.625255267045        18.3073613048499     
   119.284290512013        20.7799725359378     
   119.491198841023        23.4792163755814     
   122.360367236346        26.1777510042154     
   392.583744115568        25.5222018207482     
   396.758650125318        26.2157631308359     
   395.369036274797        22.7970042963463     
   387.676322126740        25.7233023340836     
   395.136629472285        17.7283561273743     
   395.787488978076        4.01301117619677     
   391.885205802635        3.43445138025859     
   395.680200014614        7.34868091936643     
   386.507516523533        4.54575809046403     
   395.947274137313        12.9456429338160     
   382.748661459696        25.8114218644132     
   382.164924887766        4.49467768406732     
   377.826371262000        25.8084014291885     
   377.165982256146        4.39980749279666     
   372.876922570684        25.7791077513710     
   372.154998881256        4.34772905852290     
   367.906029101514        25.7527998488859     
   367.154008334685        4.31917689293411     
   362.924298492925        25.7353696109466     
   362.155656835927        4.30306201673205     
   357.937712367937        25.7252872362383     
   357.157616180279        4.29444625047084     
   352.949012662957        25.7199073928369     
   352.159464288201        4.29012180981960     
   347.959409592083        25.7172035931190     
   347.161196006111        4.28806113231329     
   342.969434836027        25.7159177288982     
   342.162863758058        4.28712847545100     
   337.979316179578        25.7153400659121     
   337.164495939000        4.28679062989439     
   332.989146052288        25.7150958718739     
   332.165948514245        4.28771694069658     
   327.998953669022        25.7150017533930     
   327.165698370782        4.29865314708041     
   323.008702647456        25.7149874082183     
   322.157579296205        4.37026005582931     
   318.018212305478        25.7151055362606     
   317.156130237727        4.71770527101823     
   313.026840795872        25.7154477496873     
   312.300561539050        4.09486565318440     
   308.033779782963        25.7162229165308     
   307.177417596431        4.30272321153477     
   303.039124178319        25.7171019029923     
   302.177893036715        4.36934380439324     
   298.042053025066        25.7153069717190     
   297.206754605424        4.65195799737699     
   293.036208377308        25.7071768908238     
   292.532441681856        4.02212306628138     
   288.025338931581        25.7062592168393     
   287.364024849881        3.57379036936205     
   283.027625420604        25.7213888202044     
   281.718264267899        4.26786720395794     
   278.048050322020        25.7250395915222     
   277.090202174823        4.36952048161846     
   273.074326741372        25.7135194168318     
   272.172172855770        4.70019657470885     
   268.090729521001        25.7049606873628     
   267.360973356674        4.04341312947862     
   263.087798726507        25.7029661339593     
   262.202186012832        4.28297130784725     
   258.076818373064        25.7101355934800     
   257.198520124688        4.29291566166854     
   253.075952896378        25.7091242655135     
   252.209833670481        4.38370960678518     
   248.078237702742        25.7017408666038     
   247.230975537163        4.69074230084831     
   243.065392474084        25.7064753947934     
   242.276678865149        4.15535577806877     
   238.038365212511        25.7201581551496     
   237.257489943746        4.30940014291596     
   233.018265186694        25.7431527168952     
   232.102376653696        4.08033110579610     
   228.026819930372        25.7605651951449     
   225.942407313520        3.96774038491972     
   223.067214944828        25.7448893989432     
   222.787197409033        4.89972229626584     
   218.114280622365        25.7192215725741     
   217.297051360970        4.80377340077302     
   213.140786891394        25.7258837775963     
   212.469691078804        4.09404760496806     
   208.143500008662        25.7427045790895     
   207.215556083374        4.31034643524045     
   203.131889030067        25.7398771665234     
   202.322669865949        4.43264764434315     
   198.125341309097        25.7235764637947     
   198.032016534515        4.25365507728471     
   193.131972708465        25.7092284758307     
   192.132758961875        4.42323136590306     
   188.141022497173        25.7190321250386     
   187.020259727215        4.59160732194754     
   183.146951176567        25.7472429379497     
   182.903909797438        3.62645724918590     
   178.144388375092        25.7682110031673     
   177.112994971158        4.65322666431642     
   173.132180721609        25.7792835213246     
   172.485368087636        4.57968304963732     
   168.137491719872        25.7916061625629     
   167.435137287660        3.24364224475154     
   163.183802565501        25.7943140158196     
   163.112884289078        3.55436061828434     
   158.244897777962        25.7913456879261     
   157.477425327245        4.93282544915514     
   153.293723133340        25.8173515177543     
   152.626550999401        3.93850489231301     
   148.390804032257        25.9418143798674     
   147.396803783431        4.05827663667600     
   143.989130104711        26.4380462349750     
   142.553674616262        4.04125541810887     
   138.867320270775        26.0365097164894     
   137.479496021253        5.18987106036859     
   133.520228764156        22.6348351954054     
   132.403086713160        4.63279160071268     
   117.121513772644        15.1674223533331     
   116.431338814566        13.9708824653594     
   127.286617159923        4.23526123001528     
   122.522833460686        3.98751794285803     
   112.853728490333        12.4985578936740     
   117.943657378786        4.02209652817869     
   114.075599999853        12.5659066006361     
   115.176174643203        12.8848958985435     
   112.564255409999        3.42910810809346     
   111.596370318592        12.5809333018162     
   110.657645775107        12.2701115986756     
   109.027118302580        11.9989074779690     
   107.463755460729        12.0767146085790     
   108.205117218499        4.00106956638997     
   106.540092518590        11.6402825252722     
   104.087525212523        11.5071277966753     
   102.368196497045        10.8460107221828     
   103.600159461699        5.23602653637201     
   100.437961173289        10.3653795207734     
   98.6760585335582        10.1407286787245     
   97.0854471419842        10.3335343624218     
   96.6980241633475        4.85171466103203     
   94.6861035285144        9.44850438574676     
   92.3509233456095        8.60694030509781     
   92.4637860218094        4.70418621575387     
   89.5219184524408        7.97164737927545     
   86.8388856076658        7.76679651638888     
   87.2683548132939        4.19746319664948     
   84.1566170441538        6.40882186069268     
   83.4155334444880        3.06542186164243     
   81.0883230732340        5.20960757846369     
   77.0072838870806        4.30788221066047     
   72.7936816815900        4.11623393557007     
   68.2429964845959        4.29990779388584     
   62.8673719718186        4.97932076837528     
   59.4537600943700        7.82745767614015     
   57.4390960078206        4.35119619566489     
   55.7845347892422        7.92082584276061     
   52.5205402129012        4.00888248993430     
   50.0236859851884        9.89384672822313     
   47.4231955267848        4.48657749097693     
   44.5533506489702        12.6897380470819     
   41.5540591501798        3.65149017630800     
   41.4006324000713        15.9886082492540     
   37.2989038164681        4.00513410838109     
   37.3587331892842        18.6107635404454     
   32.5365195281074        4.17766833885889     
   33.1798514201404        21.3246096871046     
   27.6447074254725        4.30917327828410     
   28.9938805342298        23.7672548943305     
   22.6652237133523        4.38389966723160     
   24.6906392057222        25.8959483748822     
   17.6875946900346        4.34886157120296     
   4.10949938147956        15.6102258693194     
   12.8345069632717        4.27955161513672     
   3.83457643604669        10.7439051666846     
   8.16787210256549        4.37254007307954     
   3.42167609167627        5.27479636205744     
   115.803744822964        13.2386702842831     
  0.000000000000000E+000  0.000000000000000E+000
  0.000000000000000E+000   36.0000000000000     
   400.000000000000        30.0000000000000     
   400.000000000000       0.000000000000000E+000
  0.000000000000000E+000   4.50000000000000     
  0.000000000000000E+000   9.00000000000000     
  0.000000000000000E+000   13.5000000000000     
  0.000000000000000E+000   18.0000000000000     
  0.000000000000000E+000   22.5000000000000     
  0.000000000000000E+000   27.0000000000000     