 TITLE = "Edge Error"
 VARIABLES = "X", "Y","Estimate1" 
 ZONE T = "Domain", I=       22933  DATAPACKING=POINT, ZONETYPE=ORDERED
   115.652356500000        13.7382300000000        607.719985855507     
   115.652200000000        13.7546578500000        103418.919938264     
   115.652515500000        13.7546578500000        93369.6296853025     
   115.652359000000        13.7710857000000        1000.95924120035     
   115.652669000000        13.7382300000000        605.778388461544     
   115.652830500000        13.7546578500000        74281.9616671912     
   115.652677000000        13.7710857000000        903.695306916415     
   115.652521000000        13.7875135500000        93369.6301610124     
   115.652842000000        13.7875135500000        74281.9624585210     
   115.652686000000        13.8039414000000        167.293159268036     
   115.652200000000        13.7875135500000        103418.919938258     
   115.652362000000        13.8039414000000        187.600160171841     
   115.652981000000        13.7382300000000        555.884961063863     
   115.653146000000        13.7546578500000        65541.7303522487     
   115.652995500000        13.7710857000000        721.212588505087     
   115.653293500000        13.7382300000000        485.321045792160     
   115.653461500000        13.7546578500000        62955.8362275809     
   115.653314000000        13.7710857000000        634.357725590582     
   115.653163500000        13.7875135500000        65541.7292897319     
   115.653484000000        13.7875135500000        62955.8349153871     
   115.653333500000        13.8039414000000        155.104479056971     
   115.653010000000        13.8039414000000        155.584678674485     
   115.652853500000        13.8203692500000        15513.9655649045     
   115.653180500000        13.8203692500000        15777.2969491235     
   115.653024000000        13.8367971000000        24.4743282846471     
   115.653506500000        13.8203692500000        15591.4061960384     
   115.653353500000        13.8367971000000        23.9697897189466     
   115.653197500000        13.8532249500000        2393.75174914814     
   115.653529500000        13.8532249500000        2390.58498094572     
   115.653373500000        13.8696528000000        9.30217731653229     
   115.652864500000        13.8532249500000        2436.73100881924     
   115.653038000000        13.8696528000000        9.58937294169523     
   115.652200000000        13.8203692500000        19023.8721680247     
   115.652527000000        13.8203692500000        16964.6109398431     
   115.652365000000        13.8367971000000        28.5020354073987     
   115.652694500000        13.8367971000000        24.4001636547207     
   115.652532500000        13.8532249500000        2366.67987069971     
   115.652702500000        13.8696528000000        11.5731982560688     
   115.652200000000        13.8532249500000        2837.74037793919     
   115.652367500000        13.8696528000000        19.5729995451726     
   115.653606000000        13.7382300000000        483.770499301888     
   115.653776500000        13.7546578500000        59897.0991694590     
   115.653632000000        13.7710857000000        609.329614484163     
   115.653918500000        13.7382300000000        561.709881189189     
   115.654092000000        13.7546578500000        60435.0128191551     
   115.653950000000        13.7710857000000        584.931192662795     
   115.653805000000        13.7875135500000        59897.0975881026     
   115.654126000000        13.7875135500000        60435.0128191518     
   115.653981000000        13.8039414000000        152.039180724288     
   115.653657000000        13.8039414000000        153.751536860803     
   115.654231000000        13.7382300000000        643.021872376134     
   115.654407000000        13.7546578500000        67714.5813766358     
   115.654268000000        13.7710857000000        590.083341781465     
   115.654543500000        13.7382300000000        685.811773014411     
   115.654722500000        13.7546578500000        71989.9265322266     
   115.654586000000        13.7710857000000        590.083341807835     
   115.654447000000        13.7875135500000        60967.3447197220     
   115.654768000000        13.7875135500000        60113.8072663315     
   115.654629000000        13.8039414000000        146.187431863147     
   115.654305000000        13.8039414000000        149.520945206689     
   115.654160000000        13.8203692500000        15162.4010800374     
   115.654487000000        13.8203692500000        14824.3640878865     
   115.654342000000        13.8367971000000        24.0070465431091     
   115.654813500000        13.8203692500000        14482.2435125624     
   115.654671500000        13.8367971000000        23.9832108312339     
   115.654527000000        13.8532249500000        2390.20879900807     
   115.654859000000        13.8532249500000        2395.09408018858     
   115.654714500000        13.8696528000000        9.99422286727928     
   115.654194000000        13.8532249500000        2387.71715644787     
   115.654379000000        13.8696528000000        9.82732285681596     
   115.653833500000        13.8203692500000        15417.7643700107     
   115.653683000000        13.8367971000000        24.0108367922460     
   115.654012500000        13.8367971000000        23.9093528329904     
   115.653862000000        13.8532249500000        2386.84023024006     
   115.654043500000        13.8696528000000        9.54742290058299     
   115.653708500000        13.8696528000000        9.44216032583086     
   115.653552500000        13.8860806500000        908.106811191515     
   115.653890500000        13.8860806500000        926.056441398834     
   115.653734500000        13.9025085000000        5.71507289281906     
   115.654228000000        13.8860806500000        936.380389693151     
   115.654075000000        13.9025085000000        5.68819474907823     
   115.653919000000        13.9189363500000        549.675553171342     
   115.654262500000        13.9189363500000        548.419309913795     
   115.654106500000        13.9353642000000        2.25276328161559     
   115.653575000000        13.9189363500000        550.653262591679     
   115.653759500000        13.9353642000000        1.97446703761700     
   115.654566500000        13.8860806500000        960.963687696058     
   115.654415500000        13.9025085000000        5.86603201924928     
   115.654904500000        13.8860806500000        980.201481317211     
   115.654756500000        13.9025085000000        6.04890043578736     
   115.654606000000        13.9189363500000        565.198624782656     
   115.654950000000        13.9189363500000        582.818336738137     
   115.654799500000        13.9353642000000        2.53190119246433     
   115.654453000000        13.9353642000000        2.52460464715593     
   115.654314000000        13.9682199000000        426.606075973997     
   115.654665500000        13.9680409500000        476.855116635605     
   115.654526500000        14.0008966500000        2.52129163585259     
   115.655018500000        13.9682199000000        440.545493421453     
   115.654884500000        14.0008966500000        2.52834615904237     
   115.654706000000        14.0010756000000        3.25609567256591     
   115.653609000000        13.9682199000000        373.904971439270     
   115.653961000000        13.9680409500000        369.226623601235     
   115.653810500000        14.0008966500000        1.49094772718669     
   115.654168500000        14.0008966500000        2.01717861365539     
   115.653990000000        14.0010756000000        2.84913667795482     
   115.652200000000        13.8860806500000        1919.65552580042     
   115.652538000000        13.8860806500000        1135.06130236010     
   115.652370500000        13.9025085000000        19.7910136427409     
   115.652876000000        13.8860806500000        937.695183245653     
   115.652711500000        13.9025085000000        10.4579831813545     
   115.652544000000        13.9189363500000        1007.63743030815     
   115.652887500000        13.9189363500000        544.001545258969     
   115.652720000000        13.9353642000000        9.63876766564282     
   115.652200000000        13.9189363500000        1906.88447780213     
   115.652373500000        13.9353642000000        15.5873428688375     
   115.653214500000        13.8860806500000        912.327128846793     
   115.653052500000        13.9025085000000        5.68552479086128     
   115.653393500000        13.9025085000000        5.71507289305723     
   115.653231500000        13.9189363500000        547.806222524025     
   115.653413000000        13.9353642000000        1.96877693097542     
   115.653066500000        13.9353642000000        1.68858966387349     
   115.652904500000        13.9682199000000        793.947546930149     
   115.653257000000        13.9680409500000        309.031235924183     
   115.653095000000        14.0008966500000        6.11629513107371     
   115.653453000000        14.0008966500000        1.43774863586379     
   115.653274000000        14.0010756000000        8.65095567554526     
   115.652200000000        13.9682199000000        2951.77556823233     
   115.652552500000        13.9680409500000        2051.18477298476     
   115.652379000000        14.0008966500000        15.8881486848446     
   115.652737000000        14.0008966500000        15.8881486848446     
   115.652558000000        14.0010756000000        20.0983514234522     
   115.654856000000        13.7382300000000        714.768899298876     
   115.655038000000        13.7546578500000        75270.0703128696     
   115.654904500000        13.7710857000000        583.725077304787     
   115.655168500000        13.7382300000000        841.164765072209     
   115.655353500000        13.7546578500000        88297.4401321756     
   115.655223000000        13.7710857000000        585.435832192179     
   115.655089500000        13.7875135500000        60121.3765770278     
   115.655410500000        13.7875135500000        60487.2107461768     
   115.655277000000        13.8039414000000        136.700942467382     
   115.654953000000        13.8039414000000        142.813651723424     
   115.655762500000        13.8039414000000        252.373874744388     
   115.655700000000        13.7710857000000        1207.23398038232     
   115.656052000000        13.7875135500000        62365.7271071727     
   115.655637500000        13.7382300000000        1992.09104010056     
   115.655984000000        13.7546578500000        104722.697225948     
   115.655523500000        13.8532249500000        2455.54823774930     
   115.655887500000        13.8696528000000        20.0906962544965     
   115.655825000000        13.8367971000000        49.3265825421356     
   115.656189000000        13.8532249500000        2433.04868982680     
   115.655467000000        13.8203692500000        12815.9696455493     
   115.656120500000        13.8203692500000        12686.5578008858     
   115.655140500000        13.8203692500000        13862.3782909157     
   115.655001000000        13.8367971000000        24.1854303707333     
   115.655330500000        13.8367971000000        24.5885540255112     
   115.655191500000        13.8532249500000        2407.97030898351     
   115.655384500000        13.8696528000000        9.70479082155990     
   115.655049500000        13.8696528000000        9.99422286685532     
   115.656410000000        13.8039414000000        260.612883081066     
   115.656336500000        13.7710857000000        1729.56194973180     
   115.656694500000        13.7875135500000        89208.9997150731     
   115.656262500000        13.7382300000000        2884.72371176988     
   115.656615000000        13.7546578500000        151647.836505299     
   115.657058000000        13.8039414000000        260.612883081066     
   115.656973000000        13.7710857000000        1726.84678184268     
   115.657336500000        13.7875135500000        44980.7639188471     
   115.656887500000        13.7382300000000        2884.72371176988     
   115.657245500000        13.7546578500000        87714.4735757832     
   115.656853500000        13.8532249500000        3343.73287247839     
   115.657228500000        13.8696528000000        27.4939025465412     
   115.657143500000        13.8367971000000        67.0664022765003     
   115.657518500000        13.8532249500000        2727.03680171924     
   115.656774000000        13.8203692500000        13213.9569215680     
   115.657427500000        13.8203692500000        8187.51275993316     
   115.656558000000        13.8696528000000        27.4529280272010     
   115.656484500000        13.8367971000000        67.0664022765003     
   115.656325000000        13.9189363500000        584.794865282087     
   115.656705500000        13.9353642000000        3.97617176206284     
   115.656632000000        13.9025085000000        16.8250088601360     
   115.657012500000        13.9189363500000        810.555779437123     
   115.656257000000        13.8860806500000        983.748588194617     
   115.656933000000        13.8860806500000        1346.25050921473     
   115.657399000000        13.9353642000000        3.81983076444984     
   115.657314000000        13.9025085000000        16.8250088604866     
   115.657700500000        13.9189363500000        555.543657368525     
   115.657609500000        13.8860806500000        996.212895321478     
   115.657131500000        13.9682199000000        361.681789751965     
   115.657836500000        13.9682199000000        334.108679970259     
   115.657569000000        14.0010756000000        1.87542433684140     
   115.656427500000        13.9682199000000        377.027966779457     
   115.656853500000        14.0010756000000        2.09738928412530     
   115.655242500000        13.8860806500000        951.815163957808     
   115.655097500000        13.9025085000000        6.04890043578736     
   115.655580500000        13.8860806500000        929.287824581874     
   115.655438500000        13.9025085000000        5.87554118693183     
   115.655293500000        13.9189363500000        562.113840695806     
   115.655637500000        13.9189363500000        566.115275915344     
   115.655492500000        13.9353642000000        3.53486233101060     
   115.655146000000        13.9353642000000        2.56637220356201     
   115.656012500000        13.9353642000000        7.05953773904729     
   115.655950000000        13.9025085000000        12.1388143894082     
   115.655723000000        13.9682199000000        669.397988863521     
   115.656138000000        14.0010756000000        5.38011165195140     
   115.655370000000        13.9680409500000        484.744537802047     
   115.655242500000        14.0008966500000        3.11613121813316     
   115.655600500000        14.0008966500000        3.80909987468694     
   115.655422000000        14.0010756000000        5.38011165184462     
   115.655109500000        14.0339313000000        298.830740707878     
   115.655836500000        14.0339313000000        493.764233980630     
   115.655524000000        14.0667870000000        2.94516465332905     
   115.656564000000        14.0339313000000        225.499593544908     
   115.656262500000        14.0667870000000        2.94915539127483     
   115.655950000000        14.0996427000000        284.676595035522     
   115.656700000000        14.0996427000000        261.493631751873     
   115.656387500000        14.1324984000000        3.29681855521454     
   115.655200500000        14.0996427000000        285.081755135027     
   115.655626500000        14.1324984000000        3.30151248683630     
   115.657291000000        14.0339313000000        227.944091718987     
   115.657001500000        14.0667870000000        2.56348494227652     
   115.658018000000        14.0339313000000        236.712658179746     
   115.657740000000        14.0667870000000        2.65849261600079     
   115.657450500000        14.0996427000000        281.996651635035     
   115.658200000000        14.0996427000000        336.762804250847     
   115.657910500000        14.1324984000000        3.90001599531750     
   115.657149000000        14.1324984000000        3.27006911284963     
   115.656904500000        14.1982097500000        522.986873814040     
   115.657688000000        14.1978065000000        567.470343659347     
   115.657443500000        14.2635178500000        4.95062869094112     
   115.658473000000        14.1982097500000        673.525096017986     
   115.658250500000        14.2635178500000        4.96292073343712     
   115.657848000000        14.2639211000000        6.65836460168942     
   115.655336500000        14.1982097500000        570.163070440296     
   115.656120000000        14.1978065000000        565.858812568618     
   115.655830000000        14.2635178500000        4.36698422785862     
   115.656637000000        14.2635178500000        4.37240231933655     
   115.656234000000        14.2639211000000        5.32169012587013     
   115.652200000000        14.0339313000000        1845.69727352226     
   115.652927500000        14.0339313000000        897.883372491362     
   115.652569500000        14.0667870000000        20.7569810588647     
   115.653654500000        14.0339313000000        208.092701244686     
   115.653308000000        14.0667870000000        10.0840628613454     
   115.652950000000        14.0996427000000        928.644540297637     
   115.653700000000        14.0996427000000        266.610412443312     
   115.653342000000        14.1324984000000        10.7687113658071     
   115.652200000000        14.0996427000000        1845.69727352226     
   115.652580500000        14.1324984000000        16.8043600301769     
   115.654382000000        14.0339313000000        261.481648247159     
   115.654046500000        14.0667870000000        2.79906800977253     
   115.654785500000        14.0667870000000        2.79906800977253     
   115.654450000000        14.0996427000000        293.622963124924     
   115.654865000000        14.1324984000000        3.40489744710015     
   115.654103500000        14.1324984000000        3.40042907769484     
   115.653768500000        14.1982097500000        692.812405270818     
   115.654552000000        14.1978065000000        583.641741471365     
   115.654217000000        14.2635178500000        6.01076726279952     
   115.655023500000        14.2635178500000        4.47399183420516     
   115.654620500000        14.2639211000000        8.50314399120338     
   115.652200000000        14.1982097500000        2902.06881327862     
   115.652984000000        14.1978065000000        1916.05907448922     
   115.652603500000        14.2635178500000        16.7365452439378     
   115.653410500000        14.2635178500000        16.7365452437904     
   115.653007000000        14.2639211000000        20.7292859574877     
   115.661882000000        14.2639211000000        26.6252076453661     
   115.661336500000        14.1324984000000        31.2155025323477     
   115.664745500000        14.1982097500000        545.864546467785     
   115.661063500000        14.0667870000000        21.2859523956514     
   115.664200000000        14.0996427000000        272.932492398323     
   115.660791000000        14.0010756000000        15.0033946948056     
   115.663836500000        14.0339313000000        206.567231279383     
   115.660518500000        13.9353642000000        28.6197961730665     
   115.663473000000        13.9682199000000        339.166046443993     
   115.660382000000        13.9025085000000        95.1835680415035     
   115.663200000000        13.9189363500000        573.408642565476     
   115.660245500000        13.8696528000000        162.610118347864     
   115.663018000000        13.8860806500000        982.037831672452     
   115.660109500000        13.8367971000000        437.659520308389     
   115.662836500000        13.8532249500000        2613.72008959755     
   115.659973000000        13.8039414000000        1291.32930931422     
   115.662655000000        13.8203692500000        6806.80611234237     
   115.659836500000        13.7710857000000        6969.75534773039     
   115.662473000000        13.7875135500000        32346.9582945093     
   115.659700000000        13.7382300000000        13348.3896464736     
   115.662291000000        13.7546578500000        71223.9710694505     
   115.659927500000        14.7239009000000        215.966697115688     
   115.664064000000        14.7896123000000        9.23357949581754     
   115.663518500000        14.6581895000000        12.3986288079878     
   115.667655000000        14.7239009000000        156.769254519170     
   115.659564000000        14.5924781000000        281.799045928758     
   115.662973000000        14.5267667000000        15.3997098307392     
   115.666927500000        14.5924781000000        247.228079612446     
   115.659200000000        14.4610553000000        339.665527934738     
   115.662427500000        14.3953439000000        17.6238091955045     
   115.666200500000        14.4610553000000        321.164875233925     
   115.658836500000        14.3296325000000        542.171163151494     
   115.665473000000        14.3296325000000        444.952192613175     
   115.652200000000        14.3296325000000        1687.91871284247     
   115.653859500000        14.3296325000000        708.567858980372     
   115.653052500000        14.3953439000000        19.3004106559848     
   115.655518000000        14.3296325000000        378.188534033718     
   115.654757000000        14.3953439000000        9.18713756108307     
   115.653950500000        14.4610553000000        708.567858980363     
   115.655700000000        14.4610553000000        375.011525382150     
   115.654893500000        14.5267667000000        7.99286307565686     
   115.652200000000        14.4610553000000        1487.69150120680     
   115.653098000000        14.5267667000000        17.4967921738159     
   115.657177500000        14.3296325000000        433.328950445269     
   115.656461500000        14.3953439000000        5.01522344558150     
   115.658166000000        14.3953439000000        5.01228196556219     
   115.657450500000        14.4610553000000        386.578375303217     
   115.658484500000        14.5267667000000        3.84885535310184     
   115.656689000000        14.5267667000000        4.16614636322139     
   115.655882000000        14.5924781000000        304.859212294573     
   115.657723000000        14.5924781000000        270.459589357734     
   115.656916000000        14.6581895000000        3.23385099645635     
   115.658802500000        14.6581895000000        3.10088967006036     
   115.657995500000        14.7239009000000        184.203939351597     
   115.659120500000        14.7896123000000        2.30781120901913     
   115.656064000000        14.7239009000000        225.345790174685     
   115.657143500000        14.7896123000000        2.87176823583432     
   115.652200000000        14.5924781000000        1280.33263835430     
   115.654041000000        14.5924781000000        585.205956400885     
   115.653143000000        14.6581895000000        16.2377594842879     
   115.655029500000        14.6581895000000        7.16089938029046     
   115.654131500000        14.7239009000000        498.731146096063     
   115.655166000000        14.7896123000000        6.47812510235401     
   115.652200000000        14.7239009000000        1131.50149370985     
   115.653188500000        14.7896123000000        15.2241508957773     
   115.652200000000        14.8722581500000        1272.85067405455     
   115.654234500000        14.8722581500000        541.345080961365     
   115.653246000000        14.9549040000000        14.7517845520958     
   115.656269000000        14.8722581500000        267.854277189499     
   115.655337500000        14.9549040000000        6.37562676379717     
   115.654349000000        15.0375498500000        516.544029492958     
   115.656497500000        15.0375499000000        267.854441478802     
   115.655509000000        15.1201957500000        6.89384802273593     
   115.652200000000        15.0375498500000        1165.55810069036     
   115.653303000000        15.1201957000000        11.9682232746204     
   115.658303500000        14.8722582000000        180.196043393272     
   115.657429000000        14.9549040500000        3.39007110116288     
   115.660338000000        14.8722582000000        192.950800789604     
   115.659521000000        14.9549041000000        2.28054379544843     
   115.658646500000        15.0375499500000        180.189183785418     
   115.660795500000        15.0375500000000        214.316783260095     
   115.659921000000        15.1201958500000        2.86028113526671     
   115.657715000000        15.1201958000000        3.23198961998839     
   115.656841000000        15.2854875500000        484.335206677250     
   115.659158500000        15.2842710500000        290.829110060362     
   115.658284500000        15.4495628000000        4.06163406963216     
   115.661481500000        15.2854877000000        428.633570106962     
   115.660719000000        15.4495629000000        3.05396130001975     
   115.659504500000        15.4507794000000        5.75228591852059     
   115.652200000000        15.2854874000000        1793.51583956540     
   115.654519500000        15.2842709000000        1025.48482553955     
   115.653416500000        15.4495626000000        10.5314076014430     
   115.655851500000        15.4495627000000        10.5405008041722     
   115.654635000000        15.4507792000000        11.6662564183318     
   115.666808500000        15.4507795000000        8.02809577714625     
   115.665436000000        15.1201959000000        11.4411245293117     
   115.670763000000        15.2854877000000        276.120551846988     
   115.664750500000        14.9549041000000        9.11111619807314     
   115.669391000000        15.0375500000000        138.060271302489     
   115.668476500000        14.8722582000000        130.960264334838     
   115.662854000000        15.7813630500000        545.018290907884     
   115.673507500000        15.7813630500000        401.205656290944     
   115.669553000000        16.1119466000000        7.03762740230922     
   115.652200000000        15.7813628500000        1583.85001723725     
   115.657523000000        15.7784748000000        927.212252139769     
   115.655088000000        16.1090584500000        11.5566439792465     
   115.660872500000        16.1090584500000        11.5736624253378     
   115.657984500000        16.1119466000000        14.2634100756941     
   115.652200000000        16.5280114000000        1025.93186281567     
   115.664920000000        16.5280113500000        511.161951659874     
   115.659135500000        16.9440761500000        12.8464629561482     
   115.677640000000        16.5280113500000        574.712582301616     
   115.673007000000        16.9440761000000        9.58058909522618     
   115.667222500000        17.3601408500000        511.161953359577     
   115.682245500000        17.3601408500000        574.712578479249     
   115.676461000000        17.7762056000000        9.83901897980600     
   115.652200000000        17.3601409000000        770.666823699605     
   115.660287000000        17.7762056000000        11.1338078243084     
   115.652200000000        18.2998480000000        720.926653920768     
   115.669823000000        18.2998479500000        506.941097974571     
   115.661736000000        18.8234903500000        8.97724091668821     
   115.687446000000        18.2998479500000        637.097306901087     
   115.680808000000        18.8234903000000        8.19886579946487     
   115.672721000000        19.3471326000000        275.408545818713     
   115.693242000000        19.3471326000000        450.224275651949     
   115.685155000000        19.8707749000000        7.36481768462089     
   115.652200000000        19.3471326500000        492.959588122901     
   115.663185000000        19.8707749000000        7.46346270995483     
   115.652200000000        20.5298210500000        619.408540524757     
   115.675994000000        20.5298211500000        511.554075943892     
   115.665009000000        21.1888673000000        12.0386167126931     
   115.699787500000        20.5298211500000        642.413613743457     
   115.690626500000        21.1888674000000        12.4850551138779     
   115.679641500000        21.8479136000000        942.013816732596     
   115.707082500000        21.8479136000000        1017.35545674827     
   115.696097500000        22.5069598000000        22.5875298785227     
   115.652200000000        21.8479135000000        985.108855345984     
   115.666832500000        22.5069598000000        21.8719160184265     
   115.652200000000        23.3363928000000        1838.75744795400     
   115.683760500000        23.3363927000000        1803.92455847128     
   115.669128000000        24.1658257000000        37.5274266631646     
   115.715320500000        23.3363927000000        1862.59630208235     
   115.702983500000        24.1658256000000        38.0122563679384     
   115.688351000000        24.9952585000000        2063.48287413743     
   115.724501500000        24.9952585000000        2107.18873607325     
   115.709869000000        25.8246914000000        48.8356185484608     
   115.652200000000        24.9952586000000        2081.13427917949     