TITLE = "Visualization of the solution"
VARIABLES = "x","y","Density","Momentum_x","Momentum_y","Energy","Pressure","Temperature","Pressure_Coefficient","Mach"
ZONE NODES= 11534, ELEMENTS= 21411, DATAPACKING=POINT, ZONETYPE=FEQUADRILATERAL
1.156522e+02	1.373823e+01	1.843195e+00	7.293742e+02	-2.916454e+00	1.813758e+06	4.223892e+04	4.516368e+02	-1.905893e+18	2.592378e+00	
1.156522e+02	1.478961e+01	4.258435e+00	2.855372e-02	-1.484015e+02	4.181699e+06	1.047422e+05	4.895265e+02	-1.595480e+18	2.213911e-01	
1.156522e+02	1.611195e+01	4.141213e+00	1.945075e-02	-1.977777e+02	4.100347e+06	1.027215e+05	4.933153e+02	-1.605516e+18	3.020225e-01	
1.156522e+02	1.777621e+01	4.076111e+00	1.504137e-02	-2.164960e+02	4.037631e+06	1.011512e+05	4.933889e+02	-1.613314e+18	3.357664e-01	
1.156522e+02	1.987077e+01	4.034275e+00	9.217564e-03	-2.256313e+02	3.995697e+06	1.001023e+05	4.932483e+02	-1.618524e+18	3.535522e-01	
1.156522e+02	2.250696e+01	4.059188e+00	4.310025e-03	-2.224047e+02	4.018513e+06	1.006685e+05	4.930533e+02	-1.615711e+18	3.464666e-01	
1.156522e+02	2.582469e+01	4.184461e+00	-1.028967e-02	-1.738497e+02	4.136455e+06	1.036324e+05	4.926572e+02	-1.600992e+18	2.629723e-01	
1.156522e+02	3.000000e+01	4.391655e+00	6.866549e-03	-2.445981e+00	4.290122e+06	1.074495e+05	4.872972e+02	-1.582035e+18	3.548930e-03	
1.156622e+02	1.373823e+01	4.252246e+00	9.824373e+02	-9.606269e+01	4.201412e+06	1.023763e+05	4.794206e+02	-1.607230e+18	1.491022e+00	
1.156680e+02	1.478961e+01	4.242392e+00	1.639477e+00	-1.566013e+02	4.181125e+06	1.047370e+05	4.912721e+02	-1.595506e+18	2.340651e-01	
1.156753e+02	1.611195e+01	4.140272e+00	6.213690e-01	-1.971232e+02	4.100112e+06	1.027172e+05	4.934026e+02	-1.605537e+18	3.010637e-01	
1.156845e+02	1.777621e+01	4.076007e+00	3.917094e-01	-2.158815e+02	4.037599e+06	1.011513e+05	4.934015e+02	-1.613314e+18	3.348177e-01	
1.156961e+02	1.987077e+01	4.034302e+00	1.671390e-01	-2.254261e+02	3.995737e+06	1.001036e+05	4.932514e+02	-1.618517e+18	3.532273e-01	
1.157107e+02	2.250696e+01	4.058872e+00	-2.575158e-01	-2.218442e+02	4.018577e+06	1.006713e+05	4.931032e+02	-1.615697e+18	3.456017e-01	
1.157291e+02	2.582469e+01	4.181131e+00	-1.760375e+00	-1.716913e+02	4.136546e+06	1.036405e+05	4.930701e+02	-1.600952e+18	2.598097e-01	
1.157522e+02	3.000000e+01	4.373702e+00	-5.442817e+00	-2.257735e+00	4.289784e+06	1.074608e+05	4.892558e+02	-1.581978e+18	8.565819e-03	
1.156734e+02	1.373817e+01	5.070871e+00	9.110342e+02	-1.374536e+02	5.006236e+06	1.229014e+05	4.842920e+02	-1.505295e+18	1.165050e+00	
1.156857e+02	1.478951e+01	4.234959e+00	3.252041e+00	-1.600869e+02	4.180766e+06	1.047324e+05	4.920749e+02	-1.595529e+18	2.395175e-01	
1.157013e+02	1.611180e+01	4.139247e+00	1.251332e+00	-1.965708e+02	4.099791e+06	1.027107e+05	4.934889e+02	-1.605569e+18	3.002701e-01	
1.157208e+02	1.777601e+01	4.076044e+00	7.941000e-01	-2.152414e+02	4.037710e+06	1.011550e+05	4.934147e+02	-1.613295e+18	3.338190e-01	
1.157454e+02	1.987050e+01	4.034458e+00	3.248205e-01	-2.250442e+02	3.995944e+06	1.001093e+05	4.932604e+02	-1.618489e+18	3.526123e-01	
1.157763e+02	2.250660e+01	4.058450e+00	-6.004452e-01	-2.207726e+02	4.018839e+06	1.006800e+05	4.931938e+02	-1.615654e+18	3.439354e-01	
1.158152e+02	2.582421e+01	4.177606e+00	-3.810792e+00	-1.695027e+02	4.136673e+06	1.036497e+05	4.935109e+02	-1.600906e+18	2.566413e-01	
1.158642e+02	2.999938e+01	4.355354e+00	-1.141756e+01	-2.100596e+00	4.289753e+06	1.074802e+05	4.913093e+02	-1.581882e+18	1.690842e-02	
1.156859e+02	1.373802e+01	4.887623e+00	8.388433e+02	-1.057977e+02	4.817387e+06	1.185453e+05	4.842383e+02	-1.526929e+18	1.108369e+00	
1.157056e+02	1.478928e+01	4.230709e+00	4.913855e+00	-1.613310e+02	4.180165e+06	1.047201e+05	4.924916e+02	-1.595590e+18	2.415714e-01	
1.157303e+02	1.611146e+01	4.138400e+00	1.894590e+00	-1.957903e+02	4.099434e+06	1.027033e+05	4.935512e+02	-1.605606e+18	2.991260e-01	
1.157614e+02	1.777553e+01	4.076074e+00	1.230029e+00	-2.143836e+02	4.037790e+06	1.011582e+05	4.934264e+02	-1.613279e+18	3.324853e-01	
1.158005e+02	1.986986e+01	4.034681e+00	4.773735e-01	-2.245137e+02	3.996247e+06	1.001176e+05	4.932744e+02	-1.618447e+18	3.517571e-01	
1.158497e+02	2.250574e+01	4.058062e+00	-1.031963e+00	-2.191970e+02	4.019269e+06	1.006936e+05	4.933041e+02	-1.615587e+18	3.414754e-01	
1.159117e+02	2.582308e+01	4.175248e+00	-6.079049e+00	-1.680110e+02	4.137226e+06	1.036678e+05	4.938620e+02	-1.600816e+18	2.545307e-01	
1.159896e+02	2.999791e+01	4.342477e+00	-1.806464e+01	-1.899423e+00	4.289875e+06	1.074971e+05	4.927756e+02	-1.581798e+18	2.649095e-02	
1.157000e+02	1.373776e+01	4.801815e+00	7.316465e+02	-4.868579e+01	4.727146e+06	1.167703e+05	4.852898e+02	-1.535744e+18	9.769305e-01	
1.157278e+02	1.478887e+01	4.223800e+00	6.594116e+00	-1.608248e+02	4.179226e+06	1.047038e+05	4.931868e+02	-1.595671e+18	2.411120e-01	
1.157628e+02	1.611086e+01	4.137859e+00	2.581476e+00	-1.944281e+02	4.099116e+06	1.026973e+05	4.935849e+02	-1.605636e+18	2.970846e-01	
1.158068e+02	1.777468e+01	4.076081e+00	1.714470e+00	-2.131362e+02	4.037801e+06	1.011602e+05	4.934349e+02	-1.613270e+18	3.305524e-01	
1.158622e+02	1.986870e+01	4.035010e+00	6.230190e-01	-2.237337e+02	3.996657e+06	1.001289e+05	4.932903e+02	-1.618391e+18	3.505017e-01	
1.159319e+02	2.250420e+01	4.057960e+00	-1.568004e+00	-2.173549e+02	4.019806e+06	1.007100e+05	4.933945e+02	-1.615505e+18	3.385864e-01	
1.160197e+02	2.582107e+01	4.174340e+00	-8.620917e+00	-1.672991e+02	4.137576e+06	1.036784e+05	4.940138e+02	-1.600763e+18	2.536357e-01	
1.161301e+02	2.999528e+01	4.339496e+00	-2.549802e+01	-1.762018e+00	4.290575e+06	1.075174e+05	4.931897e+02	-1.581697e+18	3.728399e-02	
1.157157e+02	1.373734e+01	4.635565e+00	6.849881e+02	-4.647146e+01	4.561474e+06	1.128402e+05	4.854060e+02	-1.555263e+18	9.466940e-01	
1.157527e+02	1.478821e+01	4.220460e+00	7.831724e+00	-1.603827e+02	4.178511e+06	1.046893e+05	4.934935e+02	-1.595743e+18	2.406418e-01	
1.157992e+02	1.610989e+01	4.137449e+00	3.232299e+00	-1.928627e+02	4.098749e+06	1.026902e+05	4.935983e+02	-1.605671e+18	2.947327e-01	
1.158577e+02	1.777333e+01	4.076044e+00	2.226424e+00	-2.116794e+02	4.037734e+06	1.011604e+05	4.934405e+02	-1.613268e+18	3.283016e-01	
1.159313e+02	1.986687e+01	4.035248e+00	7.674302e-01	-2.230044e+02	3.996916e+06	1.001364e+05	4.932983e+02	-1.618354e+18	3.493366e-01	
1.160240e+02	2.250176e+01	4.057894e+00	-2.208720e+00	-2.157844e+02	4.019985e+06	1.007169e+05	4.934348e+02	-1.615471e+18	3.361397e-01	
1.161406e+02	2.581787e+01	4.174031e+00	-1.141806e+01	-1.664277e+02	4.137263e+06	1.036714e+05	4.940163e+02	-1.600798e+18	2.525904e-01	
1.162874e+02	2.999112e+01	4.337150e+00	-3.401437e+01	-1.954015e+00	4.290468e+06	1.075157e+05	4.934372e+02	-1.581706e+18	4.971357e-02	
1.157333e+02	1.373672e+01	4.584242e+00	6.222405e+02	-4.115108e+01	4.506921e+06	1.117140e+05	4.858169e+02	-1.560855e+18	8.689148e-01	
1.157805e+02	1.478723e+01	4.218630e+00	9.262053e+00	-1.594627e+02	4.178017e+06	1.046794e+05	4.936525e+02	-1.595792e+18	2.394408e-01	
1.158399e+02	1.610846e+01	4.137099e+00	3.993697e+00	-1.910357e+02	4.098395e+06	1.026836e+05	4.936074e+02	-1.605704e+18	2.919848e-01	
1.159146e+02	1.777133e+01	4.076040e+00	2.810783e+00	-2.099697e+02	4.037682e+06	1.011613e+05	4.934453e+02	-1.613264e+18	3.256598e-01	
1.160087e+02	1.986415e+01	4.035533e+00	9.504543e-01	-2.218718e+02	3.997187e+06	1.001447e+05	4.933048e+02	-1.618313e+18	3.475370e-01	
1.161271e+02	2.249814e+01	4.057908e+00	-2.943098e+00	-2.139477e+02	4.020109e+06	1.007225e+05	4.934601e+02	-1.615443e+18	3.332826e-01	
1.162760e+02	2.581310e+01	4.173637e+00	-1.446830e+01	-1.650350e+02	4.136564e+06	1.036550e+05	4.939847e+02	-1.600879e+18	2.508793e-01	
1.164635e+02	2.998493e+01	4.333233e+00	-4.389291e+01	-2.391839e+00	4.290072e+06	1.075076e+05	4.938268e+02	-1.581746e+18	6.417114e-02	
1.157531e+02	1.373584e+01	4.408169e+00	5.135020e+02	-2.745594e+01	4.348736e+06	1.081670e+05	4.887106e+02	-1.578471e+18	7.422374e-01	
1.158117e+02	1.478583e+01	4.217604e+00	1.066980e+01	-1.580714e+02	4.177364e+06	1.046649e+05	4.937010e+02	-1.595864e+18	2.375359e-01	
1.158855e+02	1.610641e+01	4.136994e+00	4.829160e+00	-1.887125e+02	4.098223e+06	1.026820e+05	4.936119e+02	-1.605712e+18	2.884712e-01	
1.159784e+02	1.776846e+01	4.076033e+00	3.489795e+00	-2.077911e+02	4.037584e+06	1.011617e+05	4.934477e+02	-1.613262e+18	3.222971e-01	
1.160953e+02	1.986026e+01	4.035876e+00	1.202710e+00	-2.200942e+02	3.997457e+06	1.001538e+05	4.933084e+02	-1.618268e+18	3.447245e-01	
1.162425e+02	2.249295e+01	4.057957e+00	-3.776533e+00	-2.116476e+02	4.020097e+06	1.007252e+05	4.934675e+02	-1.615430e+18	3.297144e-01	
1.164277e+02	2.580629e+01	4.172944e+00	-1.779038e+01	-1.628062e+02	4.135290e+06	1.036249e+05	4.939234e+02	-1.601029e+18	2.480697e-01	
1.166607e+02	2.997607e+01	4.319434e+00	-5.708211e+01	-3.537175e+00	4.279920e+06	1.072578e+05	4.942127e+02	-1.582987e+18	8.371716e-02	
1.157751e+02	1.373460e+01	4.521361e+00	5.217661e+02	-2.644141e+01	4.458034e+06	1.108442e+05	4.885224e+02	-1.565175e+18	7.357110e-01	
1.158466e+02	1.478388e+01	4.216478e+00	1.219605e+01	-1.563090e+02	4.176609e+06	1.046483e+05	4.937506e+02	-1.595946e+18	2.351157e-01	
1.159366e+02	1.610356e+01	4.136730e+00	5.808207e+00	-1.855213e+02	4.097808e+06	1.026753e+05	4.936105e+02	-1.605745e+18	2.836574e-01	
1.160498e+02	1.776447e+01	4.076371e+00	4.321934e+00	-2.048552e+02	4.037757e+06	1.011696e+05	4.934462e+02	-1.613223e+18	3.177438e-01	
1.161923e+02	1.985484e+01	4.036283e+00	1.551518e+00	-2.175312e+02	3.997714e+06	1.001636e+05	4.933076e+02	-1.618219e+18	3.406803e-01	
1.163717e+02	2.248573e+01	4.058153e+00	-4.685418e+00	-2.086793e+02	4.020048e+06	1.007277e+05	4.934565e+02	-1.615417e+18	3.251088e-01	
1.165974e+02	2.579680e+01	4.172089e+00	-2.136316e+01	-1.595667e+02	4.133614e+06	1.035855e+05	4.938371e+02	-1.601225e+18	2.439230e-01	
1.168814e+02	2.996373e+01	4.337467e+00	-7.181850e+01	-3.996749e+00	4.298752e+06	1.077165e+05	4.943000e+02	-1.580708e+18	1.048514e-01	
1.157998e+02	1.373292e+01	4.526286e+00	5.170238e+02	-2.641071e+01	4.457831e+06	1.108482e+05	4.880327e+02	-1.565156e+18	7.286474e-01	
1.158857e+02	1.478121e+01	4.214622e+00	1.407375e+01	-1.515053e+02	4.175753e+06	1.046326e+05	4.938864e+02	-1.596024e+18	2.282434e-01	
1.159938e+02	1.609966e+01	4.136978e+00	7.234638e+00	-1.783736e+02	4.097655e+06	1.026791e+05	4.936003e+02	-1.605726e+18	2.728062e-01	
1.161297e+02	1.775903e+01	4.077106e+00	5.572239e+00	-1.989308e+02	4.037939e+06	1.011810e+05	4.934154e+02	-1.613166e+18	3.085626e-01	
1.163009e+02	1.984744e+01	4.037106e+00	2.120171e+00	-2.126813e+02	3.998130e+06	1.001801e+05	4.932906e+02	-1.618137e+18	3.330321e-01	
1.165163e+02	2.247588e+01	4.059017e+00	-5.571843e+00	-2.034111e+02	4.020097e+06	1.007349e+05	4.933904e+02	-1.615381e+18	3.168961e-01	
1.167873e+02	2.578386e+01	4.170934e+00	-2.515849e+01	-1.537712e+02	4.131089e+06	1.035269e+05	4.936953e+02	-1.601516e+18	2.361824e-01	
1.171285e+02	2.994689e+01	4.326637e+00	-8.825270e+01	-1.373392e+00	4.287227e+06	1.074243e+05	4.941729e+02	-1.582160e+18	1.289945e-01	
1.158275e+02	1.373065e+01	4.567947e+00	5.259732e+02	-3.259148e+01	4.513239e+06	1.122048e+05	4.895483e+02	-1.558418e+18	7.338816e-01	
1.159294e+02	1.477763e+01	4.217615e+00	1.766920e+01	-1.397235e+02	4.181643e+06	1.047910e+05	4.942793e+02	-1.595238e+18	2.110255e-01	
1.160577e+02	1.609442e+01	4.140714e+00	9.756818e+00	-1.689594e+02	4.101002e+06	1.027713e+05	4.936057e+02	-1.605268e+18	2.583952e-01	
1.162191e+02	1.775170e+01	4.080811e+00	7.572358e+00	-1.922673e+02	4.040927e+06	1.012622e+05	4.933722e+02	-1.612763e+18	2.980885e-01	
1.164223e+02	1.983749e+01	4.040257e+00	3.343578e+00	-2.066858e+02	4.000714e+06	1.002513e+05	4.932640e+02	-1.617783e+18	3.234314e-01	
1.166780e+02	2.246262e+01	4.060385e+00	-6.173977e+00	-1.974976e+02	4.020322e+06	1.007468e+05	4.932880e+02	-1.615322e+18	3.076500e-01	
1.169998e+02	2.576644e+01	4.162223e+00	-3.005756e+01	-1.465175e+02	4.120862e+06	1.032789e+05	4.935291e+02	-1.602747e+18	2.272196e-01	
1.174048e+02	2.992424e+01	4.280949e+00	-1.097909e+02	-6.213599e+00	4.239909e+06	1.062446e+05	4.938703e+02	-1.588019e+18	1.624485e-01	
3.980206e+02	1.776099e+00	9.584697e+00	1.331819e+03	-1.113566e+02	9.499672e+06	2.303684e+05	4.899514e+02	-9.715757e+17	9.066778e-01	
3.030535e+00	3.293904e+01	1.815290e+01	3.194845e+02	-1.555770e+01	1.793846e+07	4.232367e+05	4.939092e+02	-1.372368e+16	1.186533e-01	
1.157722e+02	1.362641e+01	3.465247e+00	9.655899e+02	4.464808e+01	3.422647e+06	8.262599e+04	4.732291e+02	-1.705317e+18	1.797468e+00	
1.157669e+02	1.371582e+01	4.650084e+00	1.113201e+03	-1.022864e+02	4.599191e+06	1.116442e+05	4.789816e+02	-1.561202e+18	1.547611e+00	
1.158373e+02	1.371732e+01	4.498151e+00	8.870704e+02	-7.244735e+01	4.446571e+06	1.090876e+05	4.833561e+02	-1.573899e+18	1.266792e+00	
1.162104e+02	1.354259e+01	4.528628e+00	1.160175e+03	-1.106831e+02	4.475371e+06	1.082006e+05	4.764631e+02	-1.578305e+18	1.660426e+00	
1.159112e+02	1.359403e+01	4.590764e+00	1.164155e+03	-1.094851e+02	4.535818e+06	1.097099e+05	4.767014e+02	-1.570809e+18	1.643392e+00	
1.158508e+02	1.365943e+01	4.596659e+00	1.171293e+03	-1.084598e+02	4.541821e+06	1.098163e+05	4.765687e+02	-1.570280e+18	1.651415e+00	
1.159267e+02	1.372090e+01	4.426937e+00	6.401456e+02	-4.790340e+01	4.368586e+06	1.082307e+05	4.870134e+02	-1.578155e+18	9.244001e-01	
1.160658e+02	1.354994e+01	4.537092e+00	1.160246e+03	-1.086094e+02	4.483811e+06	1.084158e+05	4.765372e+02	-1.577235e+18	1.657079e+00	
1.159738e+02	1.354439e+01	4.523913e+00	1.156165e+03	-1.030529e+02	4.470314e+06	1.081030e+05	4.765175e+02	-1.578789e+18	1.655325e+00	
1.158861e+02	1.368807e+01	4.570556e+00	1.175929e+03	-1.047954e+02	4.517718e+06	1.091764e+05	4.764434e+02	-1.573458e+18	1.666931e+00	
1.159892e+02	1.380213e+01	4.324108e+00	9.879666e+01	-5.746048e+01	4.278250e+06	1.071806e+05	4.933562e+02	-1.583370e+18	1.672749e-01	
1.159685e+02	1.364340e+01	4.572429e+00	1.169522e+03	-1.094769e+02	4.518061e+06	1.092241e+05	4.764599e+02	-1.573221e+18	1.657827e+00	
1.159823e+02	1.334252e+01	3.762818e+00	1.024326e+03	-2.259110e+00	3.716841e+06	8.978722e+04	4.742127e+02	-1.669752e+18	1.754625e+00	
1.160048e+02	1.373335e+01	4.367576e+00	4.608431e+02	-3.948350e+01	4.308409e+06	1.073169e+05	4.892719e+02	-1.582693e+18	6.732860e-01	
1.173752e+02	1.043264e+01	3.533382e+00	9.808578e+02	-3.125496e+01	3.490045e+06	8.425782e+04	4.734162e+02	-1.697213e+18	1.789866e+00	
1.159348e+02	1.345736e+01	3.723481e+00	1.017008e+03	5.844740e+00	3.677997e+06	8.884078e+04	4.740871e+02	-1.674452e+18	1.760447e+00	
1.160879e+02	1.342794e+01	4.014884e+00	1.067227e+03	-3.365781e+01	3.965386e+06	9.585610e+04	4.750187e+02	-1.639611e+18	1.714633e+00	
1.161472e+02	1.380449e+01	4.293714e+00	1.494812e+02	-5.632945e+01	4.249735e+06	1.064432e+05	4.933637e+02	-1.587032e+18	2.354187e-01	
1.181201e+02	1.129878e+01	3.624344e+00	9.960213e+02	-3.810793e+01	3.579419e+06	8.644940e+04	4.737334e+02	-1.686329e+18	1.772434e+00	
1.179934e+02	9.892001e+00	3.506572e+00	9.753023e+02	-3.435712e+01	3.463458e+06	8.361163e+04	4.733202e+02	-1.700422e+18	1.793507e+00	
1.169041e+02	1.251245e+01	3.693745e+00	1.010314e+03	-2.096544e+01	3.648261e+06	8.812233e+04	4.739756e+02	-1.678020e+18	1.763266e+00	
1.170116e+02	1.112997e+01	3.572489e+00	9.886702e+02	-2.690484e+01	3.528764e+06	8.520036e+04	4.735551e+02	-1.692532e+18	1.784173e+00	
1.170190e+02	9.502237e+00	3.508539e+00	9.757020e+02	-3.345385e+01	3.465385e+06	8.365867e+04	4.733251e+02	-1.700188e+18	1.793184e+00	
1.163793e+02	1.233827e+01	3.669976e+00	1.007437e+03	-1.599878e+01	3.625170e+06	8.754966e+04	4.738946e+02	-1.680864e+18	1.769440e+00	
1.167108e+02	1.316103e+01	4.482981e+00	1.147656e+03	-1.169872e+02	4.429549e+06	1.071142e+05	4.763831e+02	-1.583700e+18	1.660094e+00	
1.161153e+02	1.323213e+01	3.746766e+00	1.021160e+03	-4.414233e+00	3.700920e+06	8.940051e+04	4.741590e+02	-1.671672e+18	1.756684e+00	
1.163002e+02	1.305747e+01	3.727687e+00	1.017592e+03	-8.319189e+00	3.682051e+06	8.894069e+04	4.740939e+02	-1.673956e+18	1.759521e+00	
1.161402e+02	1.369431e+01	4.464171e+00	8.267533e+02	-5.282046e+01	4.409442e+06	1.084592e+05	4.841329e+02	-1.577020e+18	1.186925e+00	
1.192896e+02	1.015337e+01	3.562494e+00	9.844436e+02	-4.404460e+01	3.518380e+06	8.495866e+04	4.735154e+02	-1.693732e+18	1.782649e+00	
1.173835e+02	1.203489e+01	3.668832e+00	1.004899e+03	-2.912550e+01	3.623462e+06	8.752157e+04	4.738879e+02	-1.681004e+18	1.766055e+00	
1.164432e+02	1.035458e+01	3.554640e+00	9.847920e+02	-2.899202e+01	3.510980e+06	8.476956e+04	4.734885e+02	-1.694671e+18	1.786196e+00	
1.166419e+02	1.179926e+01	3.622123e+00	9.983732e+02	-2.122252e+01	3.577872e+06	8.639649e+04	4.737290e+02	-1.686591e+18	1.776801e+00	
1.161136e+02	1.401155e+01	4.267075e+00	5.441052e+01	-9.389227e+01	4.236546e+06	1.061741e+05	4.950849e+02	-1.588369e+18	1.606133e-01	
1.166455e+02	8.268097e+00	3.475235e+00	9.692258e+02	-3.452895e+01	3.432460e+06	8.285595e+04	4.732050e+02	-1.704175e+18	1.798401e+00	
1.163154e+02	1.335655e+01	4.471435e+00	1.149138e+03	-1.059116e+02	4.418595e+06	1.068331e+05	4.763359e+02	-1.585096e+18	1.664964e+00	
1.160986e+02	1.261215e+01	3.708881e+00	1.014262e+03	-1.207766e+01	3.663486e+06	8.848685e+04	4.740262e+02	-1.676210e+18	1.762702e+00	
1.160932e+02	1.295580e+01	3.739119e+00	1.019644e+03	-8.804477e+00	3.693315e+06	8.921561e+04	4.741297e+02	-1.672591e+18	1.757707e+00	
1.175303e+02	1.267826e+01	4.427322e+00	1.133994e+03	-1.276084e+02	4.373744e+06	1.057775e+05	4.762335e+02	-1.590338e+18	1.662674e+00	
1.213606e+02	1.181304e+01	4.298987e+00	1.076494e+03	-1.333528e+02	4.251531e+06	1.030410e+05	4.774440e+02	-1.603929e+18	1.624507e+00	
1.206295e+02	9.305638e+00	3.631739e+00	9.956217e+02	-5.757602e+01	3.586416e+06	8.662561e+04	4.737484e+02	-1.685453e+18	1.769805e+00	
1.161731e+02	1.120842e+01	3.607714e+00	9.952341e+02	-2.335084e+01	3.563499e+06	8.604855e+04	4.736749e+02	-1.688319e+18	1.778365e+00	
1.230344e+02	9.942217e+00	4.278073e+00	1.105890e+03	-1.524573e+02	4.224276e+06	1.021368e+05	4.755731e+02	-1.608419e+18	1.683368e+00	
1.162615e+02	1.380636e+01	4.297737e+00	1.797328e+02	-5.679105e+01	4.257302e+06	1.066035e+05	4.936454e+02	-1.586236e+18	2.774491e-01	
1.155456e+02	9.124899e+00	3.516687e+00	9.770582e+02	-2.997696e+01	3.473328e+06	8.385450e+04	4.733513e+02	-1.699216e+18	1.791322e+00	
1.180242e+02	8.790239e+00	3.481088e+00	9.703919e+02	-3.645537e+01	3.438279e+06	8.299714e+04	4.732268e+02	-1.703474e+18	1.797670e+00	
1.163644e+02	1.269371e+01	3.697289e+00	1.012370e+03	-1.290005e+01	3.652120e+06	8.820800e+04	4.739892e+02	-1.677595e+18	1.764926e+00	
1.229987e+01	2.124562e+01	1.809811e+01	3.720086e+02	-5.252210e+01	1.788422e+07	4.220303e+05	4.938720e+02	-1.971497e+16	1.397574e-01	
1.682920e+01	1.934967e+01	1.807810e+01	3.881657e+02	-7.119340e+01	1.786451e+07	4.215921e+05	4.938611e+02	-2.189144e+16	1.469545e-01	
1.273958e+01	1.620600e+01	1.807632e+01	3.933230e+02	-4.665824e+01	1.786258e+07	4.215486e+05	4.938556e+02	-2.210724e+16	1.475052e-01	
2.142922e+01	1.780430e+01	1.805090e+01	4.088717e+02	-9.140782e+01	1.783769e+07	4.209952e+05	4.938452e+02	-2.485547e+16	1.562304e-01	
1.752511e+01	1.370931e+01	1.805164e+01	4.157877e+02	-5.887408e+01	1.783822e+07	4.210051e+05	4.938388e+02	-2.480628e+16	1.565876e-01	
1.193673e+02	1.306201e+01	4.367422e+00	9.411036e+02	-8.550090e+01	4.318975e+06	1.055895e+05	4.816220e+02	-1.591272e+18	1.387091e+00	
1.211684e+02	1.414982e+01	4.042296e+00	3.868936e+02	-5.420889e+01	3.993629e+06	9.971781e+04	4.904658e+02	-1.620433e+18	6.127867e-01	
1.229376e+02	1.591250e+01	3.903909e+00	1.495993e+02	-9.038828e+01	3.869069e+06	9.704169e+04	4.938364e+02	-1.633723e+18	2.826894e-01	
1.249448e+02	1.243058e+01	4.044170e+00	8.426660e+02	-7.420248e+01	4.000705e+06	9.810900e+04	4.825328e+02	-1.628423e+18	1.337674e+00	
1.264605e+02	1.855512e+01	3.722862e+00	5.494190e+01	-8.371314e+01	3.684215e+06	9.253449e+04	4.934158e+02	-1.656108e+18	1.697681e-01	
3.874856e+02	1.770954e+01	5.603385e+00	2.526523e+02	2.226622e+01	5.492538e+06	1.367103e+05	4.885430e+02	-1.436715e+18	2.895756e-01	
3.831647e+02	1.763785e+01	5.535713e+00	2.717073e+02	1.013883e+01	5.426234e+06	1.350738e+05	4.884499e+02	-1.444843e+18	3.141615e-01	
3.857055e+02	1.400914e+01	5.590818e+00	5.041069e+02	2.813658e+00	5.485791e+06	1.361166e+05	4.875230e+02	-1.439664e+18	5.774638e-01	
3.813571e+02	1.336932e+01	5.530480e+00	5.548633e+02	1.279910e+00	5.427926e+06	1.345796e+05	4.871568e+02	-1.447297e+18	6.426184e-01	
3.784592e+02	1.744090e+01	5.483401e+00	2.919346e+02	7.045607e+00	5.375547e+06	1.338130e+05	4.883939e+02	-1.451104e+18	3.405737e-01	
3.764195e+02	1.310968e+01	5.481784e+00	5.777567e+02	2.176993e+00	5.380829e+06	1.333672e+05	4.869564e+02	-1.453318e+18	6.750818e-01	
3.735537e+02	1.731286e+01	5.438506e+00	3.046590e+02	6.482430e+00	5.332027e+06	1.327347e+05	4.883600e+02	-1.456459e+18	3.582710e-01	
3.714396e+02	1.299158e+01	5.433754e+00	5.893889e+02	4.011872e+00	5.333759e+06	1.321823e+05	4.867959e+02	-1.459203e+18	6.947458e-01	
3.685914e+02	1.723729e+01	5.396555e+00	3.119134e+02	6.736051e+00	5.291242e+06	1.317296e+05	4.883381e+02	-1.461451e+18	3.695960e-01	
3.664537e+02	1.292918e+01	5.387085e+00	5.946682e+02	7.021218e+00	5.287807e+06	1.310407e+05	4.866741e+02	-1.464872e+18	7.070219e-01	
3.636108e+02	1.719322e+01	5.356404e+00	3.150450e+02	7.814588e+00	5.252096e+06	1.307697e+05	4.883258e+02	-1.466218e+18	3.760711e-01	
3.614637e+02	1.289453e+01	5.346924e+00	5.953657e+02	1.045173e+01	5.248674e+06	1.300792e+05	4.866443e+02	-1.469647e+18	7.131240e-01	
3.586229e+02	1.716876e+01	5.319504e+00	3.149714e+02	9.428217e+00	5.215832e+06	1.298843e+05	4.883035e+02	-1.470615e+18	3.785919e-01	
3.564711e+02	1.287606e+01	5.319105e+00	5.934836e+02	1.260663e+01	5.220987e+06	1.294048e+05	4.865934e+02	-1.472997e+18	7.145898e-01	
3.536318e+02	1.715598e+01	5.286734e+00	3.130653e+02	1.040724e+01	5.183083e+06	1.290865e+05	4.882423e+02	-1.474578e+18	3.786432e-01	
3.514772e+02	1.286673e+01	5.304393e+00	5.916660e+02	1.145399e+01	5.206086e+06	1.290439e+05	4.865512e+02	-1.474789e+18	7.143363e-01	
3.486393e+02	1.714964e+01	5.255301e+00	3.112061e+02	8.969884e+00	5.151379e+06	1.283137e+05	4.881560e+02	-1.478415e+18	3.785769e-01	
3.464825e+02	1.286225e+01	5.291365e+00	5.928778e+02	4.351591e+00	5.194071e+06	1.287467e+05	4.865958e+02	-1.476265e+18	7.173699e-01	
3.436462e+02	1.714665e+01	5.223475e+00	3.116275e+02	4.267444e+00	5.120239e+06	1.275523e+05	4.881464e+02	-1.482197e+18	3.812270e-01	
3.414876e+02	1.286021e+01	5.271707e+00	6.000916e+02	-6.917843e+00	5.176312e+06	1.282915e+05	4.866388e+02	-1.478526e+18	7.287367e-01	
3.386529e+02	1.714532e+01	5.193951e+00	3.160003e+02	-1.982028e+00	5.091179e+06	1.268351e+05	4.880973e+02	-1.485759e+18	3.887151e-01	
3.364925e+02	1.285934e+01	5.233322e+00	6.140675e+02	-1.772787e+01	5.139404e+06	1.273436e+05	4.865061e+02	-1.483233e+18	7.514224e-01	
3.336595e+02	1.714478e+01	5.162367e+00	3.244754e+02	-6.942015e+00	5.060120e+06	1.260619e+05	4.880229e+02	-1.489599e+18	4.016428e-01	
3.314973e+02	1.285932e+01	5.165157e+00	6.316969e+02	-2.056986e+01	5.076360e+06	1.257433e+05	4.865795e+02	-1.491181e+18	7.829847e-01	
3.286658e+02	1.714481e+01	5.123277e+00	3.343224e+02	-6.363780e+00	5.024397e+06	1.251750e+05	4.881954e+02	-1.494003e+18	4.168187e-01	
3.265001e+02	1.286231e+01	5.070181e+00	6.458552e+02	-8.827578e+00	4.988176e+06	1.235331e+05	4.867664e+02	-1.502158e+18	8.146634e-01	
3.236702e+02	1.714632e+01	5.074719e+00	3.390489e+02	2.616388e+00	4.979835e+06	1.240802e+05	4.884414e+02	-1.499441e+18	4.264859e-01	
3.214904e+02	1.287650e+01	4.979324e+00	6.477972e+02	1.677345e+01	4.898008e+06	1.213020e+05	4.865051e+02	-1.513238e+18	8.321258e-01	
3.186664e+02	1.715160e+01	5.017588e+00	3.311587e+02	1.778699e+01	4.924717e+06	1.227441e+05	4.885545e+02	-1.506076e+18	4.217402e-01	
3.164358e+02	1.290459e+01	4.919642e+00	6.292332e+02	4.765216e+01	4.837033e+06	1.198515e+05	4.863913e+02	-1.520442e+18	8.200370e-01	
3.136472e+02	1.716969e+01	4.963685e+00	3.061711e+02	3.342731e+01	4.871450e+06	1.214777e+05	4.886434e+02	-1.512366e+18	3.957911e-01	
3.113539e+02	1.301383e+01	4.935016e+00	5.877867e+02	6.936863e+01	4.851118e+06	1.203229e+05	4.868041e+02	-1.518101e+18	7.664474e-01	
3.085890e+02	1.718209e+01	4.920505e+00	2.694931e+02	3.738214e+01	4.826789e+06	1.204349e+05	4.886063e+02	-1.517545e+18	3.526503e-01	
3.061153e+02	1.293287e+01	4.997529e+00	5.465592e+02	5.846492e+01	4.912776e+06	1.219663e+05	4.873993e+02	-1.509939e+18	7.026492e-01	
3.035038e+02	1.721536e+01	4.883160e+00	2.349719e+02	1.805852e+01	4.788068e+06	1.195322e+05	4.885719e+02	-1.522028e+18	3.077558e-01	
3.008967e+02	1.316687e+01	4.989440e+00	4.994370e+02	3.520466e-01	4.903156e+06	1.218637e+05	4.877500e+02	-1.510449e+18	6.391954e-01	
2.984345e+02	1.723917e+01	4.856831e+00	2.277560e+02	-1.270124e+01	4.761992e+06	1.189023e+05	4.885739e+02	-1.525156e+18	2.994693e-01	
2.958042e+02	1.314329e+01	4.916230e+00	5.239165e+02	-5.561988e+01	4.831681e+06	1.200331e+05	4.874267e+02	-1.519540e+18	6.843532e-01	
2.933449e+02	1.716414e+01	4.834172e+00	2.557648e+02	-3.182402e+01	4.740438e+06	1.183366e+05	4.884819e+02	-1.527965e+18	3.399508e-01	
2.908393e+02	1.301344e+01	4.817335e+00	5.911245e+02	-7.399579e+01	4.739352e+06	1.175582e+05	4.869734e+02	-1.531831e+18	7.897492e-01	
2.879766e+02	1.688758e+01	4.796525e+00	3.098464e+02	-3.207023e+01	4.707453e+06	1.174505e+05	4.885449e+02	-1.532366e+18	4.139930e-01	
2.868937e+02	1.304363e+01	4.759645e+00	6.412107e+02	-6.239737e+01	4.691553e+06	1.162246e+05	4.871524e+02	-1.538454e+18	8.640089e-01	
2.830056e+02	1.736978e+01	4.779636e+00	3.007984e+02	-1.369924e+01	4.693011e+06	1.171157e+05	4.888281e+02	-1.534029e+18	4.014433e-01	
2.815741e+02	1.269069e+01	4.614492e+00	7.153602e+02	-2.612686e+01	4.552241e+06	1.125071e+05	4.861164e+02	-1.556917e+18	9.907084e-01	
2.782072e+02	1.740683e+01	4.733590e+00	3.077704e+02	7.923570e+00	4.648843e+06	1.160215e+05	4.888694e+02	-1.539463e+18	4.143490e-01	
2.767167e+02	1.285989e+01	4.524356e+00	6.987336e+02	3.145633e+01	4.462887e+06	1.103513e+05	4.861029e+02	-1.567623e+18	9.869219e-01	
2.734612e+02	1.699968e+01	4.657496e+00	3.271509e+02	3.091213e+01	4.575284e+06	1.141793e+05	4.888025e+02	-1.548612e+18	4.493635e-01	
2.706125e+02	1.334734e+01	4.545869e+00	5.995889e+02	8.312655e+01	4.479179e+06	1.110995e+05	4.871014e+02	-1.563908e+18	8.492383e-01	
2.685272e+02	1.724971e+01	4.599668e+00	2.678936e+02	4.325474e+01	4.517904e+06	1.128637e+05	4.891094e+02	-1.555146e+18	3.755277e-01	
2.666626e+02	1.377025e+01	4.568270e+00	5.074670e+02	9.109697e+01	4.497744e+06	1.118393e+05	4.879650e+02	-1.560233e+18	7.191814e-01	
2.635152e+02	1.681156e+01	4.559462e+00	2.457860e+02	4.513643e+01	4.479043e+06	1.119408e+05	4.892940e+02	-1.559729e+18	3.487387e-01	
2.605986e+02	1.361539e+01	4.600710e+00	4.239053e+02	6.867176e+01	4.527646e+06	1.128035e+05	4.887501e+02	-1.555445e+18	5.943707e-01	
2.582081e+02	1.714551e+01	4.542417e+00	1.825800e+02	1.958215e+01	4.461030e+06	1.115779e+05	4.894948e+02	-1.561531e+18	2.571446e-01	
2.561461e+02	1.308641e+01	4.680672e+00	4.196837e+02	1.925987e+01	4.607339e+06	1.147896e+05	4.890263e+02	-1.545581e+18	5.715866e-01	
2.533360e+02	1.707516e+01	4.547571e+00	1.800933e+02	-1.184153e+01	4.466383e+06	1.117130e+05	4.895420e+02	-1.560861e+18	2.524470e-01	
2.508876e+02	1.381147e+01	4.595453e+00	3.900074e+02	-4.952651e+01	4.521930e+06	1.127456e+05	4.890382e+02	-1.555732e+18	5.445795e-01	
2.482533e+02	1.682016e+01	4.547120e+00	2.204561e+02	-3.599286e+01	4.466643e+06	1.116712e+05	4.894101e+02	-1.561068e+18	3.125175e-01	
2.452990e+02	1.343761e+01	4.527151e+00	4.869590e+02	-7.452602e+01	4.458206e+06	1.109289e+05	4.882896e+02	-1.564754e+18	6.930409e-01	
2.431501e+02	1.723372e+01	4.540338e+00	2.340320e+02	-3.839946e+01	4.458892e+06	1.114614e+05	4.892113e+02	-1.562110e+18	3.323627e-01	
2.405272e+02	1.328491e+01	4.504416e+00	5.512752e+02	-7.180997e+01	4.438513e+06	1.102556e+05	4.877410e+02	-1.568099e+18	7.864335e-01	
2.379598e+02	1.718875e+01	4.533653e+00	2.736053e+02	-3.033950e+01	4.452876e+06	1.112588e+05	4.890323e+02	-1.563116e+18	3.864183e-01	
2.355077e+02	1.302068e+01	4.448082e+00	6.370856e+02	-5.977592e+01	4.388440e+06	1.087307e+05	4.869844e+02	-1.575672e+18	9.171798e-01	
2.329314e+02	1.743258e+01	4.523658e+00	2.892385e+02	-1.021068e+01	4.441994e+06	1.109673e+05	4.888130e+02	-1.564564e+18	4.072380e-01	
2.309279e+02	1.302733e+01	4.366838e+00	6.747283e+02	-2.100096e+01	4.310400e+06	1.066569e+05	4.864214e+02	-1.585971e+18	9.858421e-01	
2.279326e+02	1.754836e+01	4.473270e+00	2.921714e+02	1.446280e+01	4.392590e+06	1.097465e+05	4.887717e+02	-1.570627e+18	4.161775e-01	
2.263103e+02	1.321613e+01	4.325654e+00	6.627454e+02	3.038093e+01	4.267945e+06	1.056444e+05	4.863036e+02	-1.590999e+18	9.780529e-01	
2.231958e+02	1.744122e+01	4.412430e+00	2.888072e+02	3.379327e+01	4.333204e+06	1.082877e+05	4.887908e+02	-1.577872e+18	4.192690e-01	
2.217336e+02	1.254652e+01	4.294041e+00	6.896650e+02	7.688861e+01	4.237896e+06	1.047730e+05	4.857876e+02	-1.595327e+18	1.030975e+00	
2.184868e+02	1.693744e+01	4.338465e+00	2.986295e+02	4.585702e+01	4.261010e+06	1.064897e+05	4.887098e+02	-1.586801e+18	4.429595e-01	
2.157664e+02	1.295621e+01	4.308964e+00	5.887605e+02	8.522855e+01	4.246223e+06	1.053565e+05	4.868067e+02	-1.592429e+18	8.798568e-01	
2.134211e+02	1.725222e+01	4.260597e+00	2.331820e+02	3.877846e+01	4.182308e+06	1.046534e+05	4.888851e+02	-1.595921e+18	3.527155e-01	
2.109575e+02	1.337702e+01	4.272150e+00	4.968621e+02	6.534127e+01	4.206199e+06	1.046679e+05	4.876879e+02	-1.595849e+18	7.467433e-01	
2.085105e+02	1.746043e+01	4.219986e+00	1.852643e+02	2.568257e+01	4.140884e+06	1.036944e+05	4.889754e+02	-1.600684e+18	2.816894e-01	
2.065380e+02	1.402743e+01	4.263462e+00	4.076790e+02	3.900517e+01	4.193397e+06	1.045982e+05	4.883203e+02	-1.596195e+18	6.110550e-01	
2.033834e+02	1.716646e+01	4.212978e+00	1.810821e+02	6.653065e+00	4.133688e+06	1.035233e+05	4.889657e+02	-1.601533e+18	2.733549e-01	
2.017057e+02	1.262366e+01	4.413916e+00	4.991979e+02	-1.493051e+00	4.348541e+06	1.082009e+05	4.882526e+02	-1.578303e+18	7.199718e-01	
1.982993e+02	1.732340e+01	4.208507e+00	1.817228e+02	-2.080095e+01	4.129176e+06	1.034101e+05	4.889407e+02	-1.602096e+18	2.762224e-01	