 TITLE = "Adapted Mesh"
 VARIABLES = "X", "Y"
 ZONE T = "Domain", N=       23133 E=       45510 
 DATAPACKING=POINT, ZONETYPE=FEQUADRILATERAL
   115.652200000000        13.7382300000000     
   115.652200000000        14.7896122899470     
   115.652200000000        16.1119466301946     
   115.652200000000        17.7762056196718     
   115.652200000000        19.8707748919024     
   115.652200000000        22.5069598288973     
   115.652200000000        25.8246913631930     
   115.652200000000        30.0000000000000     
   115.662200000000        13.7382299995359     
   115.668018825858        14.7896122892128     
   115.675337223113        16.1119466291208     
   115.684547985713        17.7762056181705     
   115.696140280880        19.8707748898631     
   115.710730121936        22.5069598261809     
   115.729091951041        25.8246913596245     
   115.752200000000        29.9999999860769     
   115.673399828472        13.7381680140919     
   115.685735639483        14.7895142355183     
   115.701250516132        16.1118032120201     
   115.720777174854        17.7760051077507     
   115.745352641767        19.8705025240864     
   115.776282854550        22.5065970246292     
   115.815209617297        25.8242147414576     
   115.864198284721        29.9993801212521     
   115.685942965079        13.7380208405238     
   115.705577408853        14.7892814242136     
   115.730271851153        16.1114626932616     
   115.761351695230        17.7755290309168     
   115.800467536330        19.8698558393064     
   115.849697986057        22.5057356159590     
   115.911656241885        25.8230830951912     
   115.989629650791        29.9979083739534     
   115.699989795288        13.7377584865577     
   115.727797844947        14.7888664110430     
   115.762772315610        16.1108556790542     
   115.806790361521        17.7746803687072     
   115.862189702815        19.8687030486325     
   115.931914254552        22.5042000550299     
   116.019665059956        25.8210658043834     
   116.130097952880        29.9952848212987     
   115.715719485094        13.7373423420753     
   115.752680367332        14.7882081193327     
   115.799166449865        16.1098928363082     
   115.857672739635        17.7733342251701     
   115.931306401640        19.8668744981234     
   116.023980320791        22.5017643563534     
   116.140613713805        25.8178659883049     
   116.287394850944        29.9911233619440     
   115.733332011404        13.7367228763120     
   115.780541315993        14.7872281972284     
   115.839916944947        16.1084595645914     
   115.914645714580        17.7713303782630     
   116.008696336946        19.8641525482116     
   116.127066652044        22.4981386157658     
   116.276039864877        25.8131027952463     
   116.463520114043        29.9849286880627     
   115.753050336998        13.7358367414360     
   115.811733391872        14.7858264358984     
   115.885539674818        16.1064092946166     
   115.978430526045        17.7684639105169     
   116.095339213459        19.8602588467511     
   116.242478252190        22.4929520576442     
   116.427657917501        25.8062891313764     
   116.660703369991        29.9760673211394     
   115.775122705272        13.7346031340164     
   115.846649286874        14.7838750138021     
   115.936609005763        16.1035550696879     
   116.049830191411        17.7644734391160     
   116.192325819631        19.8548383412030     
   116.371668092851        22.4857317385317     
   116.597376663580        25.7968036833565     
   116.881427052747        29.9637312266430     
   115.799825009498        13.7329192305196     
   115.885725431758        14.7812112761823     
   115.993763278197        16.0996589847086     
   116.129737169839        17.7590263506510     
   116.300868438246        19.8474392220816     
   116.516250980708        22.4758758310459     
   116.787317500302        25.7838558209852     
   117.128450095023        29.9468921689925     
   115.827463161390        13.7306544701587     
   115.929445742940        14.7776286912037     
   116.057710286885        16.0944189582813     
   116.219141024111        17.7517003072869     
   116.422311253975        19.8374878016325     
   116.678017420766        22.4626201613250     
   116.999832642535        25.7664416369102     
   117.404831613976        29.9242445400459     
   397.139991776095        2.39875222511358     
   3.04954486440533        32.9231930585417     
   115.773692742679        13.6619333916165     
   115.794055916009        13.7123691577693     
   115.863736278857        13.7239784158941     
   116.318102083636        13.4371259200988     
   115.976912002205        13.5830421496864     
   115.913154655739        13.6601568331204     
   115.941063443304        13.7448326833745     
   116.168738877490        13.5331307571491     
   116.031041701651        13.5259424225433     
   115.971128368792        13.6987171257534     
   116.106400406219        13.8311709300295     
   116.051213409332        13.6181139686973     
   116.030806773678        13.3764840672405     
   116.130035815995        13.7194747602019     
   117.694847590149        10.7404803472532     
   115.940149378941        13.4833535781730     
   116.110128893913        13.4344195702890     
   116.280105468798        13.7500942471289     
   118.089543311273        11.7297334514860     
   118.325665762009        10.2975404150612     
   116.911931089235        12.3853460435210     
   117.357360806292        11.3377107262215     
   117.674261390393        9.96524746527333     
   116.517703344843        12.3617048212065     
   116.916379993492        12.9702084703160     
   116.098897571601        13.2533243154919     
   116.330247929404        12.9913009969162     
   116.203192770261        13.6395026736718     
   119.488906120856        10.7080437505992     
   117.507187850242        11.8678657737621     
   116.825071314692        10.7228357622391     
   116.850309892036        12.0004738025820     
   116.259902341063        13.9971980253122     
   117.360000260127        9.00931575118258     
   116.271226843640        13.2653251706491     
   116.187484406374        12.6170287465703     
   116.048772388158        13.0372323423768     
   117.688660722502        12.6104583428240     
   121.451402515315        11.7128494593935     
   120.843809568152        9.27953295156516     
   116.551846087608        11.4386055811133     
   122.717171804973        9.67523173345644     
   116.404986344221        13.8106616370633     
   116.240653417731        10.0782781517071     
   118.646120886702        9.13613544677151     
   116.399533731201        12.7446561467521     
   12.7269905536212        19.6239458823894     
   17.8160081010869        18.2127642215359     
   13.3375661740634        14.8328896929611     
   22.9715894232883        17.2231054076448     
   17.8636506585610        12.5920575691574     
   119.104114713917        12.7912383022452     
   121.508851994568        13.8711168960103     
   122.489091070821        15.7045920957550     
   126.501282888670        12.0060943369366     
   127.569031507605        18.1551400181178     
   388.650567671928        17.5295064335831     
   384.940041034074        16.5587322943715     
   386.781703706163        13.6089300158317     
   381.858777766902        12.6154825396843     
   378.648062956201        17.0219719288724     
   378.385718976632        11.9501235366120     
   373.750613707809        17.1143848238514     
   373.469590312301        12.2201307429708     
   368.814295172253        17.0945415722279     
   367.425694886652        12.0178400893432     
   363.864121589440        17.4086089516711     
   361.532343906467        12.9272210236682     
   358.879147408573        17.4058361965663     
   356.953945498615        12.7795639598523     
   353.824273813889        17.5117898479917     
   351.978512932104        13.3263534156732     
   349.638375131700        17.1657922210976     
   347.588782371501        12.7127601251213     
   343.939169414170        16.9506671513984     
   343.295856670694        12.5226076757120     
   338.915505474483        16.8901435130193     
   338.325629308957        12.0386964616337     
   333.267120363603        17.1655754572409     
   332.697470810937        12.9593564954987     
   328.807195196662        16.9539812326850     
   327.589966409042        12.3659914572985     
   323.981104791661        17.1193412976232     
   322.951141497422        12.9568861774028     
   318.848244658461        17.3056439688386     
   318.339484987494        12.7805007066318     
   314.485334605876        16.7849068784650     
   313.255338824955        11.8144729912835     
   309.263766256927        17.0620364186034     
   307.483560503617        12.6683110372368     
   303.928097915836        17.0762247416072     
   303.083368974907        12.0357944092092     
   298.788729388331        17.2367921671427     
   297.413325244373        12.7345009685500     
   294.096514454961        16.9629130126322     
   293.575254836673        13.2009420644449     
   288.683714148394        17.2481775379876     
   288.818700821573        12.3509202335102     
   283.991524856942        17.1272307714150     
   283.623756772596        12.3252945604638     
   279.997980214668        17.4757869884398     
   277.418157659948        12.6903496961645     
   275.609981486031        17.0586105340557     
   271.904001421356        13.1364816743256     
   270.001731500308        16.9313746278065     
   268.066810401561        12.5207055862090     
   264.269583847672        18.0840886080292     
   262.441306787404        13.1010573252763     
   259.641158279412        17.6744908687706     
   256.673405489381        12.6364430062924     
   255.061417901636        17.5356398909814     
   252.118012993265        12.5099228559502     
   248.858478250603        16.7921538808288     
   247.019402681942        12.4927601280305     
   244.970385760617        16.4689097851694     
   242.479301278035        12.0715541437724     
   239.558704099091        16.8413305987026     
   236.505993096548        12.6917355657941     
   235.206275732753        16.6533810751515     
   232.533518978238        12.5701232069585     
   228.984764034769        17.0129452384746     
   227.515667448826        13.0678710109511     
   223.086764642668        17.5952893377210     
   222.731603689142        12.3145933712992     
   218.883450106575        16.5074068914610     
   217.844857106352        12.1861158787617     
   212.869478036972        17.7205473231040     
   211.692940495061        12.6015639208272     
   208.631297045976        17.1706051045856     
   204.934799873750        13.2157700308369     
   203.017846647739        17.2465142093215     
   200.317117276483        12.0775498039312     
   198.089053378570        16.1933610302583     
   196.313544702136        12.6000755984461     
   193.604410644582        17.0023197803651     
   191.960939375785        13.0609873020590     
   189.223482419024        17.2743448051309     
   187.772236866453        13.5018176515176     
   184.682088362107        17.7992138908951     
   182.261337304569        13.4702714346224     
   178.670206841012        17.9387174607044     
   176.874020033268        13.3991967974173     
   173.577229328495        16.7180113839599     
   172.245654002401        13.4497074916221     
   168.106774682284        16.6915997148453     
   165.790022465819        14.2410610509509     
   162.671282815005        18.0987831951484     
   160.858191218043        13.2605257160901     
   158.452461507515        17.6990414115945     
   157.175913531080        12.4724339706768     
   154.382963138558        16.0366437047225     
   151.671361081547        13.8116118488406     
   148.937544732991        16.0915659006389     
   148.406084888691        12.3823797765736     
   144.365891185735        15.9348059172604     
   143.476991090998        11.8624942539875     
   139.019787918338        11.1719815908213     
   132.709883389206        15.0504645236007     
   116.768764493444        13.4622336925791     
   122.517843914742        7.56092868915438     
   118.072120861915        7.86606971545345     
   114.682939140151        10.1221794001569     
   115.819292130652        12.8799949958264     
   115.799760505139        11.0644943378597     
   112.711094806926        8.18941226897575     
   108.501513235114        8.35216019712341     
   112.003885083021        10.0615691231734     
   99.8842529090990        5.96364326981384     
   33.1621019516813        11.5790947923556     
   30.3130337045504        12.7624259172890     
   27.4530138440094        16.2747906552512     
   24.5122946837917        12.7323190778520     
   12.3670815759218        11.4494046225249     
   7.69875904276885        27.4231417602348     
   8.30475006985817        22.4706212824568     
   12.6159285688544        24.8277418236203     
   17.2180507736043        23.0457984510640     
   8.86616226451510        17.0051069142971     
   22.2769429544489        22.1555626760135     
   118.747648381754        14.9550167575927     
   120.859652656659        16.5985217968780     
   121.486890023489        18.8829780645627     
   122.959888496198        22.3083513258898     
   126.284635507644        23.9264340077088     
   392.157220808640        20.8286275160343     
   386.415099016708        20.7904686030002     
   391.704637469186        14.9460999054703     
   389.470836409950        9.35340773332177     
   382.656757955254        8.32568105221762     
   380.822930357728        21.4525622368464     
   379.272897059173        8.13473755361638     
   375.508114862117        21.5083247375687     
   374.043209246510        8.32146855458853     
   370.536771222770        21.4787007084567     
   368.588525282431        7.91049837533757     
   365.538858289156        21.5159482790222     
   364.645434820328        7.11099043952187     
   360.457073554184        21.4588646517282     
   359.996253230241        8.41069399573438     
   355.572872155559        21.5143394755572     
   355.909463905818        7.81534441368080     
   350.648052992434        21.5241693583422     
   349.137157367761        9.11675478169718     
   345.686981609750        21.5337005486501     
   342.984370682419        8.16359482958179     
   340.726588454939        21.6063606355134     
   338.988167367896        7.67025512253735     
   335.588538918012        21.5083394143916     
   334.207780088005        8.58348551750209     
   330.741914887003        21.6327694200745     
   329.674358339861        9.33890063015147     
   325.621434083170        21.4876677541660     
   326.357221769539        8.03322433302772     
   320.662288684498        21.5666593410640     
   320.552078042475        8.63528256703746     
   315.690946175253        21.3922230389837     
   315.400144444303        8.08715569145842     
   310.455965961352        21.4466604671249     
   310.151999163054        8.07739368899811     
   305.799215226345        21.5993179841978     
   304.527629408112        8.13975529893829     
   300.472329197302        21.7265370528141     
   300.318164898630        7.40988911203867     
   295.358874291323        21.5914803835772     
   296.198638893343        8.47040741928777     
   290.919089045866        21.3755239437030     
   290.070491543639        8.40000889629781     
   285.711879528860        21.5496124234534     
   284.850472287449        8.21915327579822     
   281.204382842664        21.5863870666672     
   279.269417411661        7.82593841668361     
   276.356081167637        21.5366429401170     
   274.771170658187        8.97896650934964     
   271.567438094371        21.9592966642910     
   269.987510181657        8.04723190808579     
   266.801106146094        21.9776704783880     
   264.674451725906        8.07236711021980     
   261.707028619692        21.5692309505114     
   259.815856150768        7.77984186632833     
   256.556931053607        21.5215661254479     
   254.041940709786        8.34845506972682     
   251.023029990583        22.0127292780806     
   248.992183500815        8.52977504087409     
   246.635104317819        20.3115070282213     
   244.464172573476        8.29498989265201     
   241.599707370630        20.9837766562661     
   239.901376356429        7.57640587106752     
   236.695742406706        21.2884082524504     
   233.246226519021        9.02676772395054     
   231.531496664813        21.4180649006002     
   229.529864462398        7.83574028432302     
   226.017463034094        22.3567330237479     
   224.133039661303        9.40981374957923     
   220.848876594112        21.9970753896587     
   219.008651493383        9.28514385617617     
   217.352158183560        22.2669775761400     
   214.971106410484        7.78582439887454     
   210.705559968620        21.8307625737424     
   208.620248892933        8.13496913954461     
   205.799117779478        21.3837875885578     
   204.337694782248        8.41715741624957     
   200.100370927307        21.2125505526144     
   199.086590663163        7.79740620827902     
   195.119176775262        21.0709498116315     
   194.415702247667        8.47472878166646     
   190.587270190882        21.4552253713040     
   189.603866293385        8.76381057874246     
   185.625014017828        21.8741308763324     
   185.372060317700        9.34458496194092     
   180.406450080305        22.4198933885802     
   179.287058421237        9.79452012967152     
   174.936574510777        21.8199315705347     
   174.350731703129        9.10283125223610     
   171.025174008317        21.1491273748752     
   168.860519820968        9.18392972051453     
   166.045228630757        21.3707466669755     
   164.139220676518        8.23453606143319     
   161.253833606483        21.5927700785499     
   158.613606901606        8.45401675158536     
   156.059164549261        21.6015271617841     
   153.473174824733        8.63771914350028     
   151.620408087011        20.9893114756255     
   149.857135090807        8.45909594452718     
   144.880717599015        21.3518963385294     
   146.102572075914        7.76789688958123     
   140.137378636627        21.9511999292171     
   139.117028532372        16.2398016140113     
   141.485768409205        7.77335740364831     
   134.008774877501        8.69665793557727     
   128.512198322610        8.75573204329532     
   117.399875696317        13.8293062168426     
   124.220488953759        8.00766751099571     
   119.442087302042        7.08560376069114     
   113.021581326279        11.2111756337234     
   114.145476626771        11.5522057625667     
   116.139832810319        12.1149654015270     
   115.349873563614        8.37693498046191     
   114.941579969983        11.9138967671767     
   110.976777989412        7.70807334022634     
   110.602876090453        11.2783543961719     
   111.711417258648        11.4851895506714     
   109.708367544464        10.2056165557312     
   107.938686117307        10.6353852408426     
   106.342908796715        7.74445802655563     
   106.596347302980        9.94692183428063     
   104.412576666422        10.0053990924310     
   103.931424968765        8.33749153893725     
   101.644949362003        8.21318734922505     
   98.8762981522826        8.16352689515865     
   96.1183177761215        8.11832064725356     
   94.0807477752403        7.26400127162476     
   43.7306492623630        8.34342808493198     
   41.1250169119087        11.3998153310383     
   39.0887723573667        7.98076165196757     
   36.4656924973181        13.4213443911149     
   34.0141794783312        8.94459722821317     
   33.7471265626658        15.4169960510285     
   29.5988453602780        9.56483417353956     
   30.8499823382346        18.2554989854011     
   26.4289158000041        8.72712197315389     
   27.0854127778908        20.7208410188551     
   21.9881902732625        8.45944599670822     
   15.4931505688778        8.15469728266757     
   8.33545161717440        12.0306080782848     
   10.9396575530981        7.53475794565823     
   7.02786152419028        7.94057865635705     
   3.55360945840055        29.3069951595289     
   6.73963686826886        31.9151814136619     
   3.93544105653466        24.8716062051098     
   11.3107528123709        30.4742621961418     
   4.20540527114148        20.1086666184269     
   16.2410985353114        28.5343752404778     
   21.5036203878756        26.8578703977204     
   118.032033337809        16.5802523637879     
   118.171788113459        18.7189058466614     
   118.706064586663        21.3377841228185     
   121.244110305062        23.4419693304209     
   122.605439593650        26.1083016984515     
   393.168037535032        25.4907809440095     
   398.166871629092        26.6247326876307     
   395.512471383612        22.8378948875438     
   388.370808074441        25.5065359214873     
   395.212606678653        17.1091948700993     
   396.648197710968        3.81527104593471     
   392.415538921104        4.55653975440096     
   395.403699105202        8.18083553640755     
   386.784936259629        3.50614218503424     
   394.187689804077        11.8081934861365     
   381.852438322514        25.7842224712352     
   381.821870879876        3.95289073558252     
   377.647817911843        25.7539905473377     
   376.609772254609        4.25415292388624     
   373.285605402743        25.3925186558465     
   372.180319360128        4.81243510840893     
   367.251588887803        25.7051599457589     
   366.858849951471        4.41743096147190     
   361.852395273651        26.0889520026553     
   363.549153195125        2.76706100796334     
   357.346697401886        25.7832611493329     
   357.223553631338        3.63719885513140     
   352.079208151113        25.9372810221693     
   351.793817345236        4.32045403150715     
   347.257157742113        25.9839749678166     
   348.570412041422        4.87480481734957     
   341.814209744820        26.1443608966182     
   342.586414167247        4.15253305250532     
   337.096751216989        25.9016902237882     
   337.531108884629        3.93023346161134     
   331.173990418750        26.6490429227461     
   331.595659007862        4.56217461465204     
   326.305676257146        26.3300612148513     
   327.310175120290        4.22056579882661     
   321.306083935226        26.2797362053579     
   322.668157950523        3.81484260489648     
   316.427619453201        26.1615549185186     
   317.616375660719        3.71073578708550     
   311.848532680594        25.8819556502881     
   313.196413425551        2.59982295915631     
   306.269033053954        25.8277268608685     
   307.992936572755        3.55264163485356     
   300.592277634231        26.0102637708212     
   302.745178843937        3.96369045589327     
   297.030917405831        25.3212380695626     
   298.298514828095        3.73546710349952     
   292.085271915701        25.2026327759877     
   291.703510787022        4.56090864683845     
   288.394794744246        25.4827423127328     
   287.214499701676        4.20550694821286     
   283.412508679499        25.8442669352343     
   282.389062819865        3.85114152236150     
   277.978780200758        26.3734431321468     
   278.406857908956        3.44747231199304     
   272.980390155425        26.0804037228326     
   272.531755576735        4.03138148443584     
   267.104616978259        26.3142809634737     
   267.406701966075        3.72202025704169     
   262.393355275439        25.8959732290055     
   261.847832204605        3.63016621866929     
   257.447084144987        26.5845053877506     
   256.193796999822        4.26280314747416     
   252.467326687549        25.7396045834212     
   251.156276682947        4.26761242574048     
   247.540103724995        25.8191959417530     
   245.913072620061        4.41989365309183     
   242.019509193148        25.0988638451315     
   241.627007380716        3.78848373015564     
   237.578567980983        25.4472072743990     
   237.501773060382        3.38754764418815     
   232.734883008123        25.5922092651007     
   231.379224533383        4.88666228432688     
   228.096830081524        26.0703809260363     
   226.918732838942        3.86026256252656     
   223.248388240131        27.1992643362019     
   222.644737540074        4.66639130389095     
   217.815224993164        26.7320680789121     
   217.373941017039        4.29483136320428     
   212.052942432454        26.6573161603831     
   212.205183004037        4.10190421080427     
   207.880309172827        26.2037935413165     
   208.037685213074        3.88767566005683     
   203.007226207525        26.0171782918318     
   202.795116834521        3.33483978861125     
   197.811445625933        26.2167175226406     
   195.705323829101        3.62635306108309     
   191.696379153345        26.1688287257536     
   193.233383577510        4.78713802660288     
   186.494324534734        26.2968657169398     
   187.685376228456        4.12610861922078     
   182.060636777215        26.2728174694924     
   181.360771609938        5.09268449547751     
   176.282553198987        27.1571767846078     
   176.509153805758        3.63464355906254     
   171.653496995834        26.8542510268146     
   172.142801825504        3.50383377992857     
   168.386251275294        25.5305021706101     
   166.856263242269        4.33685049829973     
   163.297251442600        25.4911591679274     
   162.062883337040        3.73797616444709     
   158.236790293168        25.3964234897927     
   156.958197145911        4.21680629228199     
   153.067896346927        25.5063917645521     
   151.810538897249        4.06791877026641     
   148.319482350065        25.5560168925384     
   146.435866173240        4.53805000074479     
   143.263814343806        25.2682613155706     
   142.457985802269        3.58041317377782     
   139.185475914054        25.5724120358595     
   136.766435028831        4.50878291597878     
   132.480593449628        22.6220719261464     
   132.956675278723        3.90401844966172     
   117.612883960510        15.4483192612923     
   116.544242876842        13.9755837028212     
   128.133059144120        4.42244237158141     
   123.163357907283        4.19000137694061     
   113.230020890990        12.7059048338206     
   119.012560240557        4.39459463800821     
   114.349191638864        12.8414214068010     
   115.381519895373        12.9708680718907     
   112.322151690840        4.97629345339058     
   112.036077761248        12.5227296246080     
   110.808926080767        12.4535911868975     
   109.595555073059        12.3073813812451     
   108.380031483627        11.8533594131492     
   108.514965234808        4.84935832752559     
   106.627642795813        11.7527691019637     
   104.882470069587        11.5471247935837     
   102.952747993288        11.3344623847832     
   104.462919073628        4.02940603777006     
   101.458445212660        10.3245354272146     
   99.2603886826368        10.3874984804881     
   97.3468367515248        10.4772999304269     
   97.0603396476015        4.71341502139397     
   94.3565601461150        9.90769843898793     
   92.4960698754207        8.61362306679857     
   91.8545518981286        4.18112866489451     
   89.2860156052657        8.08199316327501     
   86.2416764485135        8.09169297547129     
   86.8847392684920        3.82935567547665     
   83.5338349921206        6.98035913972943     
   83.1463350193835        2.88713033970237     
   81.0430272171819        4.71651858339637     
   77.2507023631947        5.18692553143082     
   72.9804486336841        4.34655716828380     
   68.8568430722626        3.87281282570766     
   62.4930878955979        4.49233619946543     
   61.0175317071167        6.69910199175008     
   57.3588702982866        3.64397249257174     
   55.6587561979151        7.54650833148145     
   52.3450193716529        4.39422724117142     
   48.7550066844155        9.65401840236259     
   46.6944592555679        4.40710789459691     
   44.9659987678637        13.1166231646996     
   42.2240848931812        4.18121794674543     
   41.2655451688267        15.6618961342541     
   36.8656706023492        4.00087073324793     
   37.4029998190570        18.3144887132006     
   32.0542300570911        4.86042784057835     
   34.2284859610146        20.5609073057937     
   27.9559376631145        4.62383713546337     
   30.8384377146883        23.3929214848378     
   23.5288473564702        4.26518038985583     
   26.6577457293972        25.4836158741773     
   18.8982155990950        4.55079550322821     
   4.21961678525004        15.2738743910294     
   13.8320133874132        4.31499457909766     
   3.85998922086779        10.5393956840761     
   8.43581203646718        3.98349149000817     
   3.47689635487909        5.16123887465922     
   115.829187937040        13.3383274523248     
  0.000000000000000E+000  0.000000000000000E+000
  0.000000000000000E+000   36.0000000000000     
   400.000000000000        30.0000000000000     
   400.000000000000       0.000000000000000E+000
  0.000000000000000E+000   4.50000000000000     
  0.000000000000000E+000   9.00000000000000     
  0.000000000000000E+000   13.5000000000000     
  0.000000000000000E+000   18.0000000000000     
  0.000000000000000E+000   22.5000000000000     
  0.000000000000000E+000   27.0000000000000     