 TITLE = "Edge Error"
 VARIABLES = "X", "Y","Estimate1" 
 ZONE T = "Domain", I=       36766  DATAPACKING=POINT, ZONETYPE=ORDERED
   115.652200000000        14.6581895000000       2.319280020349953E-003
   115.660109500000        14.7896123000000       7.385610668820293E-005
   115.659382000000        14.5267667000000       8.155310050667863E-004
   115.667291500000        14.6581895000000       4.378207310274981E-003
   115.652200000000        14.3953439000000       2.510896799903751E-004
   115.658654500000        14.2639211000000       8.662713972023191E-004
   115.665836500000        14.3953439000000       6.550207400899071E-004
   115.652200000000        14.1324983500000       1.403043595292921E-003
   115.657927500000        14.0010756000000       1.138835075707826E-003
   115.664382000000        14.1324983500000       1.851809547693606E-003
   115.652200000000        13.8696528000000       5.694472566398497E-003
   115.657200000000        13.7382300000000       2.457803165687836E-003
   115.662927500000        13.8696528000000       1.473625435975858E-002
   115.652200000000        15.7813628500000       8.207452958558651E-005
   115.663768500000        16.1119466000000       1.313101427458530E-007
   115.661939000000        15.4507793000000       2.836829482852349E-006
   115.673507500000        15.7813630500000       2.857228960310679E-004
   115.652200000000        15.2854874000000       8.529606907121742E-005
   115.661024000000        15.1201958000000       1.064908471865521E-005
   115.670763000000        15.2854877000000       1.755660079013951E-004
   115.652200000000        15.0375498500000       2.067666852075303E-004
   115.660567000000        14.9549040500000       2.789768593605768E-005
   115.669391000000        15.0375500000000       3.776546123352847E-004
   115.652200000000        14.8722581500000       1.458490221406331E-003
   115.668476500000        14.8722582000000       2.705580857171555E-003
   115.652200000000        17.3601409000000       1.317686989264835E-004
   115.668374000000        17.7762056000000       1.337702271277387E-006
   115.666071500000        16.9440761500000       2.361988221139152E-007
   115.682245500000        17.3601408500000       5.573961979739622E-004
   115.652200000000        16.5280114000000       1.032970396673195E-004
   115.677640000000        16.5280113500000       3.589727107122183E-004
   115.652200000000        19.3471326500000       1.457241018816576E-004
   115.674170000000        19.8707749000000       1.336669305944911E-006
   115.671272000000        18.8234903500000       2.485001550358915E-006
   115.693242000000        19.3471326000000       6.977492413042363E-004
   115.652200000000        18.2998480000000       1.658388172578478E-004
   115.687446000000        18.2998479500000       7.016543589408639E-004
   115.652200000000        21.8479135000000       3.231651593455375E-005
   115.681465000000        22.5069598000000       1.280649053907948E-005
   115.677817500000        21.1888673000000       9.101735827342215E-006
   115.707082500000        21.8479136000000       1.448503813411172E-004
   115.652200000000        20.5298210500000       3.231650857926265E-005
   115.699787500000        20.5298211500000       3.429761222128881E-004
   115.652200000000        24.9952586000000       2.395424968970004E-004
   115.690646000000        25.8246914000000       1.716576184649992E-005
   115.686055500000        24.1658257000000       1.293275638675133E-005
   115.724501500000        24.9952585000000       8.346485115309524E-004
   115.652200000000        23.3363928000000       1.809209108027608E-004
   115.715320500000        23.3363927000000       6.761249361967137E-004
   115.652200000000        29.4780864000000       4.551136998918098E-004
   115.702200000000        30.0000000000000       6.654796616479266E-005
   115.699311500000        28.9561728000000       4.582450709857384E-006
   115.749311500000        29.4780864000000       1.493018157282700E-003
   115.652200000000        28.4342592500000       4.551136562913279E-004
   115.696423000000        27.9123457000000       2.367024319239530E-006
   115.743534500000        28.4342592500000       1.489418243661927E-003
   115.652200000000        27.3904321000000       2.747128329796513E-004
   115.693534500000        26.8685185000000       1.569583691274009E-005
   115.737757500000        27.3904321000000       8.147393908329540E-004
   115.652200000000        26.3466049500000       1.863703747993866E-004
   115.731980500000        26.3466049500000       5.857091850218588E-004
   115.676877500000        14.7895632500000       8.695069594495267E-005
   115.674608000000        14.5267222000000       9.132017543267288E-004
   115.684194000000        14.6580959500000       1.862612059576097E-003
   115.672338500000        14.2638811000000       9.702440309441739E-004
   115.681110000000        14.3952594000000       8.126349612303794E-004
   115.670069500000        14.0010401000000       1.274974468899612E-003
   115.678026000000        14.1324228500000       1.319733834676219E-003
   115.667800000000        13.7381990000000       2.749347912124108E-003
   115.674942000000        13.8695863000000       6.245874037299252E-003
   115.688294000000        16.1118749000000       6.006670084343367E-008
   115.682585500000        15.4507191000000       3.324829693022649E-006
   115.697372000000        15.7812309500000       4.023261799644921E-004
   115.679731000000        15.1201412000000       1.186926687326546E-005
   115.691553500000        15.2853726000000       1.047056304672886E-004
   115.678304500000        14.9548522500000       3.292096770417718E-005
   115.688644500000        15.0374434500000       8.336930008139964E-005
   115.686705500000        14.8721573000000       1.115255615481120E-003
   115.702662500000        17.7761053500000       1.504642986765825E-006
   115.695478500000        16.9439901500000       2.407549565344279E-007
   115.715895500000        17.3599546500000       1.066863010001006E-003
   115.706132500000        16.5278537000000       5.049109641570553E-004
   115.720746500000        19.8706387000000       1.704619460209250E-006
   115.711704500000        18.8233720500000       2.656194704748177E-006
   115.739209000000        19.3468781500000       1.392890670085041E-003
   115.726921000000        18.2996294500000       1.392890670085041E-003
   115.743506500000        22.5067784000000       1.590904423682403E-005
   115.732126500000        21.1887086000000       1.132837482793584E-005
   115.768550500000        21.8475734000000       5.199446169296126E-004
   115.753085500000        20.5295261500000       9.120608974358312E-004
   115.772151000000        25.8244530500000       2.103338585752925E-005
   115.757828500000        24.1656157500000       1.599800926389620E-005
   115.805478000000        24.9948103000000       1.462752770755865E-003
   115.786014500000        23.3360014500000       1.267939662250100E-003
   115.808199000000        29.9996900500000       1.558708729225466E-004
   115.799187000000        28.9558808000000       3.191063003677669E-006
   115.858074500000        29.4774844500000       2.302953919936329E-003
   115.790175000000        27.9120715500000       4.618583892819394E-006
   115.845827500000        28.4336931000000       2.286529245776865E-003
   115.781163000000        26.8682623000000       1.948046716000720E-005
   115.833580500000        27.3899017500000       1.271815565783701E-003
   115.821333500000        26.3461104000000       9.609162293504695E-004
   115.695656500000        14.7893978000000       9.761303519557083E-005
   115.691660500000        14.5265720000000       6.102735443573310E-004
   115.703123000000        14.6578738500000       6.950301172330644E-004
   115.687664000000        14.2637461000000       9.926607103849846E-004
   115.698214500000        14.3950587000000       7.689072011107334E-004
   115.683668000000        14.0009203000000       1.222995165431550E-003
   115.693306000000        14.1322435500000       1.657161788846188E-003
   115.679671500000        13.7380944000000       7.651991603081596E-004
   115.688397500000        13.8694284000000       3.527149306514463E-003
   115.715761500000        16.1116329500000       1.294012887333088E-007
   115.705709000000        15.4505154000000       3.745645808134548E-006
   115.724098500000        15.7809174000000       2.820627070159791E-004
   115.700682500000        15.1199566000000       1.264161807715162E-005
   115.714838000000        15.2850994000000       1.253809221573199E-004
   115.698169500000        14.9546772500000       4.024320493726331E-005
   115.710207500000        15.0371904000000       2.297607091235030E-004
   115.707120500000        14.8719177500000       3.312336845243921E-004
   115.741064500000        17.7757670500000       1.446040076205028E-006
   115.728413000000        16.9437000500000       2.952865803407849E-008
   115.753582000000        17.3595124500000       1.425847339630945E-003
   115.738042000000        16.5274793000000       4.782159974188203E-004
   115.772910500000        19.8701791500000       1.979092072991573E-006
   115.756987500000        18.8229731000000       2.581159482947020E-006
   115.790689000000        19.3462741000000       1.767957129831005E-003
   115.771131000000        18.2991107000000       1.794866320936182E-003
   115.812990500000        22.5061663000000       1.946232356222441E-005
   115.792950500000        21.1881727500000       1.382098502189796E-005
   115.837390500000        21.8467656500000       9.148679184442570E-004
   115.812775500000        20.5288257500000       1.297216291946206E-003
   115.863433000000        25.8236489000000       2.551937279510872E-005
   115.838211500000        24.1649076500000       1.955326062864799E-005
   115.896166500000        24.9937462500000       1.971440605717823E-003
   115.865187500000        23.3350725000000       1.746915653323632E-003
   115.926914000000        29.9986442500000       1.844874779375406E-004
   115.911043500000        28.9548954500000       5.931220760054278E-006
   115.979883000000        29.4760552500000       2.422645363718456E-003
   115.895173500000        27.9111465500000       6.256929032860977E-006
   115.960389500000        28.4323489000000       2.395430428069964E-003
   115.879303500000        26.8673977500000       2.381465232342467E-005
   115.940896500000        27.3886425500000       1.595674295780934E-003
   115.921403000000        26.3449362500000       1.298724291014762E-003
   115.716687500000        14.7890739000000       7.391197684309925E-005
   115.710757500000        14.5262778500000       6.353609065931238E-005
   115.724322000000        14.6574779000000       7.661226093055695E-004
   115.704827000000        14.2634817500000       3.336742500009047E-004
   115.717370000000        14.3947009000000       7.661226093055290E-004
   115.698897000000        14.0006857500000       5.334489010694971E-004
   115.710418000000        14.1319239500000       8.409537509260782E-004
   115.692966500000        13.7378896500000       3.056447783247441E-004
   115.703466000000        13.8691470000000       3.959129313531067E-003
   115.746522000000        16.1111592000000       3.156498636927723E-008
   115.731605000000        15.4501165500000       4.145995243299399E-006
   115.754028500000        15.7803583500000       2.980118056506917E-004
   115.724146000000        15.1195952000000       1.271248200350353E-005
   115.740913000000        15.2846123500000       1.513856211038666E-004
   115.720417000000        14.9543346000000       5.076428777674148E-005
   115.734355500000        15.0367394000000       2.428760209147385E-004
   115.729984000000        14.8714907500000       3.735268551753224E-004
   115.784071000000        17.7751047000000       1.134977254727018E-006
   115.765296500000        16.9431319500000       6.520143443168344E-007
   115.795785500000        17.3587242000000       1.671060273584524E-003
   115.773776500000        16.5268118500000       9.163414105701574E-004
   115.831329000000        19.8692794000000       2.311655078128317E-006
   115.807700000000        18.8221920500000       2.362179466173376E-006
   115.848340000000        19.3451973500000       1.871293247955645E-003
   115.820640000000        18.2981860500000       2.103543481744133E-003
   115.890806000000        22.5049678500000       2.361216062066983E-005
   115.861067500000        21.1871236500000       1.672082556450086E-005
   115.914483000000        21.8453258500000       1.181186607317529E-003
   115.879621000000        20.5275773000000       1.370119020449475E-003
   115.965660500000        25.8220744500000       3.081434986204737E-005
   115.928233500000        24.1635211500000       2.367160030711059E-005
   115.997727500000        24.9918493500000       2.417623432941907E-003
   115.953852000000        23.3334165000000       2.156765095570979E-003
   116.059864000000        29.9965966000000       2.067060957981062E-004
   116.036313000000        28.9529661000000       1.618427558918769E-005
   116.116294000000        29.4735074500000       1.903736349483291E-003
   116.012762500000        27.9093355000000       7.161920285091122E-006
   116.088686000000        28.4299527000000       1.876273717655991E-003
   115.989211500000        26.8657050000000       2.885796199512939E-005
   116.061077500000        27.3863979500000       1.720345979489240E-003
   116.033469000000        26.3428432000000       1.573038201172283E-003
   115.740239000000        14.7885372500000       6.513588083049464E-005
   115.732143000000        14.5257905500000       6.241083480756377E-005
   115.748060000000        14.6568499000000       8.447390312504656E-004
   115.724047000000        14.2630438000000       3.822365421679151E-005
   115.738820000000        14.3941334500000       8.447393435920379E-004
   115.715951000000        14.0002971500000       2.642372569588623E-004
   115.729580000000        14.1314170000000       1.044864899340230E-003
   115.707854500000        13.7375504000000       3.404688133845950E-004
   115.720339500000        13.8687005500000       2.792533926132462E-003
   115.780969000000        16.1103742500000       4.614916081762137E-007
   115.760604000000        15.4494557500000       4.417809527505395E-006
   115.787544500000        15.7794716500000       4.717841912984232E-004
   115.750421500000        15.1189965000000       1.176613758916040E-005
   115.770112500000        15.2838399000000       2.378867498812788E-004
   115.745330500000        14.9537669000000       6.581707329219472E-005
   115.761396500000        15.0360240000000       1.746977350967307E-004
   115.755585500000        14.8708134000000       1.746977350967668E-004
   115.832231500000        17.7740073000000       6.801634399767310E-007
   115.806600500000        16.9421907500000       9.268692188679963E-007
   115.843046500000        17.3574738500000       1.605380655332271E-003
   115.813793000000        16.5257531500000       9.324745734953372E-004
   115.896748000000        19.8677887500000       2.658031514223242E-006
   115.864490000000        18.8208980500000       1.984968343305482E-006
   115.912898000000        19.3434894500000       1.693567872872419E-003
   115.876081500000        18.2967193000000       2.020977191751782E-003
   115.977947000000        22.5029822500000       2.876650752114946E-005
   115.937347500000        21.1853855000000       2.022546760395890E-005
   116.000811500000        21.8430419000000       1.264633345228331E-003
   115.954474500000        20.5255969500000       1.164071834227974E-003
   116.080139500000        25.8194659000000       3.733982395762290E-005
   116.029043500000        24.1612240500000       2.860580060434513E-005
   116.111455500000        24.9888406000000       2.679201645655402E-003
   116.053138500000        23.3307898000000       2.437940245662311E-003
   116.208746500000        29.9932041000000       1.822563667462029E-004
   116.176595000000        28.9497695500000       2.072809049344633E-005
   116.269047500000        29.4694662000000       9.789831803276266E-004
   116.144443000000        27.9063350000000       8.559400686826164E-006
   116.232352000000        28.4261518500000       1.483977804373940E-003
   116.112291000000        26.8629004500000       3.590979670689251E-005
   116.195656500000        27.3828375000000       1.608915763060722E-003
   116.158961500000        26.3395231500000       1.685864578769553E-003
   115.766610500000        14.7877181500000       6.526021950267151E-005
   115.756089500000        14.5250468000000       6.311262453210491E-005
   115.774640000000        14.6559150500000       9.274041792416445E-004
   115.745568500000        14.2623753500000       3.190105452027464E-005
   115.762838000000        14.3932887000000       9.241224314171660E-004
   115.735047000000        13.9997040000000       2.225781642981833E-004
   115.751035500000        14.1306623500000       1.357806195777776E-003
   115.724525500000        13.7370326000000       2.448123916202643E-004
   115.739233000000        13.8680360500000       3.302432548848852E-003
   115.819541500000        16.1091762000000       9.245709187589375E-007
   115.793076000000        15.4484472000000       4.479769419297790E-006
   115.825073000000        15.7781517500000       6.645237418053075E-004
   115.779843500000        15.1180826500000       9.736281667107926E-006
   115.802807000000        15.2826899500000       3.332935335841027E-004
   115.773227000000        14.9529004000000       8.711913971007774E-005
   115.791674000000        15.0349590500000       1.340877572864811E-004
   115.784252000000        14.8698051500000       1.340877572865235E-004
   115.886159500000        17.7723323000000       7.620220961412734E-008
   115.852850500000        16.9407542500000       7.984243569193129E-007
   115.895963500000        17.3556127000000       1.450554370686817E-003
   115.858599000000        16.5241773000000       8.503780986257602E-004
   115.970001000000        19.8655135000000       3.271560775996023E-006
   115.928080500000        18.8189229500000       1.690187235257604E-006
   115.985183500000        19.3409470000000       1.467418332643376E-003
   115.938158500000        18.2945359500000       1.826381328189054E-003
   116.075523500000        22.4999515000000       3.548776927526458E-005
   116.022762000000        21.1827325000000       2.457045778355621E-005
   116.097474000000        21.8396421000000       1.093593804406260E-003
   116.038288500000        20.5226490500000       8.021899087639109E-004
   116.208327000000        25.8154844000000       4.509126463850068E-005
   116.141925000000        24.1577179500000       3.439293099467024E-005
   116.238796500000        24.9843617500000       2.920297190396501E-003
   116.164310000000        23.3268796500000       2.765904954212733E-003
   116.375457500000        29.9880260500000       8.709322512228106E-005
   116.333675000000        28.9448906000000       2.570872359677359E-005
   116.440085000000        29.4634504500000       1.998779892112208E-004
   116.291892000000        27.9017552000000       1.562750209978589E-005
   116.393215000000        28.4204939500000       8.217125585796214E-004
   116.250109500000        26.8586198000000       4.586956593306569E-005
   116.346345000000        27.3775375000000       1.347148408089077E-003
   116.299475000000        26.3345810500000       1.837572021847076E-003
   115.796137000000        14.7865273000000       6.552547412832953E-005
   115.782901000000        14.5239654500000       5.511707538954979E-005
   115.804398000000        14.6545777000000       1.018519717345698E-003
   115.769664500000        14.2614035500000       1.063108382390363E-004
   115.789727500000        14.3920803000000       1.049954658016039E-003
   115.756427500000        13.9988417000000       5.041804294575311E-004
   115.775056500000        14.1295829000000       1.987994126557481E-003
   115.743191000000        13.7362798000000       5.049557586108781E-004
   115.760385500000        13.8670854500000       3.985897468063116E-003
   115.862728500000        16.1074344500000       1.965550143867384E-006
   115.829433000000        15.4469809000000       4.695958847105494E-006
   115.867088500000        15.7762636000000       4.143217526519974E-004
   115.812785000000        15.1167541000000       7.236134420681832E-006
   115.839411000000        15.2810450500000       2.071609598934410E-004
   115.804461000000        14.9516407000000       1.154159853007715E-004
   115.825572000000        15.0334357500000       1.512015543698415E-004
   115.816346000000        14.8683628500000       3.026671523120313E-004
   115.946538500000        17.7698971500000       8.117550855028267E-007
   115.904633000000        16.9386658000000       2.895540958548961E-007
   115.955208000000        17.3529502500000       9.211770198346573E-004
   115.908762500000        16.5219229500000       6.671532337658174E-004
   116.052017500000        19.8622056500000       4.329519978142127E-006
   115.999278000000        18.8160514500000       1.437284192893488E-006
   116.066112000000        19.3373101000000       8.401269681055221E-004
   116.007658000000        18.2914126500000       1.160925728860639E-003
   116.184772500000        22.4955453500000       4.586627561689114E-005
   116.118395000000        21.1788755500000       3.002754777550091E-005
   116.205693500000        21.8347788000000       5.398924456485985E-004
   116.132124000000        20.5184321500000       5.311079936173011E-004
   116.351849000000        25.8096959500000       5.638088113510925E-005
   116.268310500000        24.1526206500000       4.488266315031258E-005
   116.381363000000        24.9779548500000       1.732383512877809E-003
   116.288773000000        23.3212863500000       1.480561888162593E-003
   116.562111500000        29.9804980000000       2.973151926754123E-004
   116.509546000000        28.9377975000000       1.251333456116711E-004
   116.631572500000        29.4548450500000       1.093413877134168E-003
   116.456980500000        27.8950969500000       2.985926703247788E-005
   116.573311500000        28.4124005000000       1.047180481709421E-003
   116.404414500000        26.8523965000000       6.227093293417581E-005
   116.515050000000        27.3699559500000       5.370210372980296E-004
   116.456788500000        26.3275114000000       1.090087417018918E-003
   115.829191000000        14.7848507000000       1.367921084238925E-004
   115.812915500000        14.5224430000000       8.435877744763705E-005
   115.837708500000        14.6527160000000       1.260592472336767E-003
   115.796639000000        14.2600353500000       1.168517972304705E-004
   115.819827000000        14.3903980500000       1.125146821055955E-003
   115.780362500000        13.9976276500000       7.830675016251817E-004
   115.801945000000        14.1280801000000       3.255758970771978E-003
   115.764086500000        13.7352199000000       8.508831278560930E-004
   115.784063500000        13.8657621000000       5.517822305529575E-003
   115.911074500000        16.1049822000000       2.639312415520388E-006
   115.870133000000        15.4449164500000       3.972384288325474E-006
   115.914119000000        15.7736350500000       1.370290537318142E-003
   115.849662000000        15.1148836000000       4.812118006130989E-006
   115.880384000000        15.2787550000000       4.448717550278582E-004
   115.839426500000        14.9498671500000       1.509384244061349E-004
   115.863516500000        15.0313150000000       2.046472271412153E-004
   115.852271500000        14.8663550000000       7.927317935977595E-004
   116.014130500000        17.7664686500000       5.779117709334519E-006
   115.962602500000        16.9357254500000       5.455384767005940E-006
   116.021525000000        17.3492438500000       2.177614585937012E-003
   115.964914500000        16.5187847000000       2.087543704538507E-003
   116.143832500000        19.8575485500000       5.116965394378364E-007
   116.078981500000        18.8120086500000       2.874835223581955E-006
   116.156702000000        19.3322471000000       2.219158199672590E-003
   116.085454000000        18.2870646500000       2.742000385904782E-003
   116.307073000000        22.4893419000000       5.221244197950490E-005
   116.225453000000        21.1734452500000       2.992250257135528E-005
   116.326832500000        21.8280083500000       1.460235531447199E-003
   116.237161500000        20.5125616500000       1.710195166245869E-003
   116.512517500000        25.8015464000000       7.558254355615379E-005
   116.409795000000        24.1454441500000       5.890280636467914E-005
   116.540949500000        24.9690357000000       2.304393422424226E-003
   116.428095000000        23.3134997000000       2.300023566868674E-003
   116.771065000000        29.9698992500000       9.951767118528683E-004
   116.706428000000        28.9278110500000       9.096915689316172E-004
   116.845920500000        29.4428652500000       2.348674207183946E-003
   116.641791500000        27.8857228500000       1.505039666676208E-005
   116.774908000000        28.4011334000000       2.726904477039819E-003
   116.577154000000        26.8436346500000       8.670622474951581E-005
   116.703895500000        27.3594015500000       2.445231292384848E-003
   116.632883000000        26.3176696500000       1.217539220319870E-003
   115.866187000000        14.7825431500000       2.812399010472255E-004
   115.846509000000        14.5203476500000       2.201399195660275E-004
   115.874987500000        14.6501748000000       1.317415032577162E-003
   115.826830500000        14.2581522000000       4.363696901138996E-005
   115.853512500000        14.3881018000000       1.295930497703350E-003
   115.807152000000        13.9959566500000       8.625410214804073E-004
   115.832037500000        14.1260287500000       4.137674392345547E-003
   115.787474000000        13.7337611500000       9.466128308567428E-004
   115.810562500000        13.8639557000000       5.015680231061102E-003
   115.965186000000        16.1016070500000       1.420321224953670E-005
   115.915686500000        15.4420750500000       3.947874125422846E-006
   115.966753500000        15.7700470500000       2.966448066989740E-003
   115.890937000000        15.1123091000000       1.111038678326790E-006
   115.926239500000        15.2756291500000       1.198855124461813E-003
   115.878562000000        14.9474261000000       2.166792720446712E-004
   115.905982500000        15.0284202000000       3.598617281411663E-004
   115.892477500000        14.8636142500000       4.698875558198153E-004
   116.089783500000        17.7617499000000       9.035719421397767E-006
   116.027485000000        16.9316785000000       1.009544946782127E-005
   116.095743500000        17.3441845500000       2.546204192074179E-003
   116.027756500000        16.5145008500000       3.728371336021638E-003
   116.246597000000        19.8511387500000       1.537330814644245E-006
   116.168190500000        18.8064443500000       5.667141456665744E-006
   116.258085500000        19.3253360000000       2.799873743456545E-004
   116.172520000000        18.2811296000000       1.242157882110724E-003
   116.443959500000        22.4808037500000       7.104894676181374E-005
   116.345278500000        21.1659712500000       3.158020911981080E-005
   116.462405500000        21.8187666500000       1.267509239819498E-003
   116.354714000000        20.5045483500000       1.239156397798940E-003
   116.692347500000        25.7903297500000       1.121796755095465E-004
   116.568153000000        24.1355667500000       9.420551609752703E-005
   116.719551000000        24.9568608000000       2.328334629639985E-003
   116.584017500000        23.3028708000000       1.493344201444089E-003
   117.004938500000        29.9553117000000       1.113572968551191E-003
   116.926790500000        28.9140662000000       1.012522316707399E-003
   117.085808500000        29.4265126500000       1.325466698970635E-003
   116.848643000000        27.8728207500000       1.482671023077822E-004
   117.000525500000        28.3857535500000       1.325466698970606E-003
   116.770495000000        26.8315752500000       9.519028491787562E-005
   116.915242500000        27.3449944500000       9.672473236661870E-004
   116.829959500000        26.3042353500000       1.465084287610072E-003
   115.907585500000        14.7794200000000       5.971735191758234E-004
   115.884100000000        14.5175117000000       6.405830521459810E-004
   115.916698000000        14.6467569000000       8.937385894105292E-003
   115.860614500000        14.2556034500000       5.550981307902589E-004
   115.891202000000        14.3850133500000       2.858563477943104E-003
   115.837129500000        13.9936951000000       1.224479470208275E-004
   115.865706500000        14.1232698000000       1.435767630826622E-002
   115.813644000000        13.7317868500000       3.097049575684197E-004
   115.840211000000        13.8615262500000       1.427843902530341E-002
   116.025736500000        16.0970390000000       1.367968942070285E-006
   115.966661000000        15.4382294500000       8.619555497350604E-006
   116.025644000000        15.7652214000000       1.979402614378219E-003
   115.937123500000        15.1088247500000       3.986317930260646E-005
   115.977545000000        15.2714250500000       9.769563845357964E-004
   115.922354500000        14.9441223500000       8.914419564758433E-004
   115.953495500000        15.0245269000000       9.482788086103919E-004
   115.937462500000        14.8599281000000       5.663522925789127E-003
   116.174439000000        17.7553633500000       7.045230043443521E-006
   116.100088000000        16.9262011500000       6.073006302151185E-007
   116.178783500000        17.3373799500000       1.409912410104541E-003