 TITLE = "Adapted Mesh"
 VARIABLES = "X", "Y"
 ZONE T = "Domain", N=       29147 E=       46166 
 DATAPACKING=POINT, ZONETYPE=FEQUADRILATERAL
   115.652200000000        13.7382300000000     
   115.652200000000        14.7816554182814     
   115.652200000000        15.9533774773651     
   115.652200000000        17.2659318281530     
   115.652200000000        18.7393913154639     
   115.652200000000        20.3916177555449     
   115.652200000000        22.2458027109019     
   115.652200000000        24.3256223919252     
   115.652200000000        26.6588310806039     
   115.652200000000        29.2760970634487     
   115.652200000000        32.2129841762114     
   115.652200000000        35.5070363954620     
   115.652200000000        39.2030815715862     
   115.652200000000        43.3491316899287     
   115.652200000000        48.0000000000000     
   115.662200000000        13.7382299995359     
   115.664940905772        14.7816554176901     
   115.668018825858        15.9533774766309     
   115.671466689049        17.2659318272589     
   115.675337223113        18.7393913143901     
   115.679677348624        20.3916177542697     
   115.684547985713        22.2458027094007     
   115.690011327765        24.3256223901704     
   115.696140280880        26.6588310785647     
   115.703015405500        29.2760970610903     
   115.710730121937        32.2129841734950     
   115.719383052002        35.5070363923440     
   115.729091951042        39.2030815680176     
   115.739982938596        43.3491316858547     
   115.752200000000        47.9999999860769     
   115.673399961357        13.7382005785724     
   115.679210671002        14.7816179327160     
   115.685735849691        15.9533309361171     
   115.693045306332        17.2658751428010     
   115.701250823590        18.7393232424483     
   115.710451872904        20.3915369132577     
   115.720777604710        22.2457075385057     
   115.732359868749        24.3255111455966     
   115.745353225669        26.6587018020187     
   115.759928463297        29.2759475572643     
   115.776283632330        32.2128119722288     
   115.794627810631        35.5068387333227     
   115.815210639078        39.2028553444786     
   115.838299490607        43.3488734199794     
   115.864199613574        47.9997057660324     
   115.685943766846        13.7381307225185     
   115.695192615377        14.7815289297718     
   115.705578677154        15.9532204320321     
   115.717213066316        17.2657405533083     
   115.730273706217        18.7391616149323     
   115.744918924553        20.3913449673312     
   115.761354288783        22.2454815682317     
   115.779789662823        24.3252470105704     
   115.800471059316        26.6583948525408     
   115.823670319538        29.2755925808765     
   115.849702678808        32.2124031038736     
   115.878900924275        35.5063694190097     
   115.911662406827        39.2023182076248     
   115.948412701302        43.3482602029806     
   115.989637668458        47.9990071938160     
   115.699992494923        13.7380061916946     
   115.713091967442        14.7813702662151     
   115.727802115452        15.9530234388731     
   115.744280313856        17.2655006236320     
   115.762778561815        18.7388734851769     
   115.783521104464        20.3910027896240     
   115.806799094296        22.2450787360818     
   115.832909769024        24.3247761429711     
   115.862201565089        26.6578476605765     
   115.895059500939        29.2749597724149     
   115.931930055550        32.2116742234080     
   115.973284567173        35.5055327828879     
   116.019685817979        39.2013606657776     
   116.071736564718        43.3471670347615     
   116.130124949231        47.9977618724768     
   115.715726448500        13.7378086506257     
   115.733138449436        14.7811185809890     
   115.752691382621        15.9527109520690     
   115.774594432963        17.2651200273811     
   115.799182561249        18.7384164299832     
   115.826753837230        20.3904599991091     
   115.857695264846        22.2444397304849     
   115.892401936596        24.3240292139301     
   115.931336999040        26.6569796595299     
   115.975012224051        29.2739559594151     
   116.024021077688        32.2105180130679     
   116.078990069306        35.5042056416342     
   116.140667256790        39.1998417338853     
   116.209853832786        43.3454329611267     
   116.287464484998        47.9957864470882     
   115.733347411513        13.7375145701526     
   115.755589152372        14.7807438958118     
   115.780565677157        15.9522457512490     
   115.808544194475        17.2645534316539     
   115.839952576518        18.7377360094084     
   115.875171571611        20.3896519438913     
   115.914695530825        22.2434884393465     
   115.959029137397        24.3229172565684     
   116.008764005457        26.6556874616090     
   116.064553862132        29.2724615774945     
   116.127156789066        32.2087967563904     
   116.197373076749        35.5022299191678     
   116.276158279319        39.1975804916430     
   116.364535824202        43.3428514361918     
   116.463674115126        47.9928456258582     
   115.753081153907        13.7370938441151     
   115.780731727608        14.7802078527069     
   115.811782140601        15.9515802119986     
   115.846564582321        17.2637428318456     
   115.885610976578        18.7367625661559     
   115.929394663551        20.3884959002199     
   115.978530212525        22.2421274752986     
   116.033645037563        24.3213264354926     
   116.095474623814        26.6538387794945     
   116.164831674307        29.2703236409723     
   116.242658623920        32.2063342416451     
   116.329950380888        35.4994033531071     
   116.427894874716        39.1943454469006     
   116.537764413879        43.3391581792237     
   116.661011539058        47.9886383469610     
   115.775180205266        13.7365080476308     
   115.808887920709        14.7794614948915     
   115.846740245108        15.9506535506601     
   115.889142137401        17.2626141959269     
   115.936742044765        18.7354071957150     
   115.990116997395        20.3868862866993     
   116.050016192287        22.2402325415805     
   116.117204484985        24.3191114611143     
   116.192578476203        26.6512647731656     
   116.277128899903        29.2673468922410     
   116.372004640990        32.2029055675156     
   116.478418552550        35.4954677933523     
   116.597818792229        39.1898411432262     
   116.731756380723        43.3340158852969     
   116.882002052644        47.9827803613184     
   115.799926915790        13.7357082456092     
   115.840417471403        14.7784424746248     
   115.885886635539        15.9493883576593     
   115.936820855065        17.2610732421765     
   115.993999061033        18.7335566758710     
   116.058114396629        20.3846886426671     
   116.130066816130        22.2376453430239     
   116.210775083253        24.3160873033510     
   116.301316217327        26.6477504204497     
   116.402880312905        29.2632826656418     
   116.516847439433        32.1982243163067     
   116.644674506544        35.4900944790144     
   116.788101077626        39.1836913091432     
   116.948990277750        43.3269949877859     
   117.129469157873        47.9747823177378     
   115.827636819895        13.7346322372411     
   115.875722399115        14.7770715424382     
   115.929720450291        15.9476862386105     
   115.990208665658        17.2590001302244     
   116.058112084400        18.7310670912193     
   116.134253866166        20.3817320567810     
   116.219702774333        22.2341646725311     
   116.315549909891        24.3120187726750     
   116.423074314270        26.6430224092312     
   116.543689314241        29.2578148852256     
   116.679033846031        32.1919264259066     
   116.830838099374        35.4828655260538     
   117.001167936590        39.1754176704715     
   117.192235958785        43.3175494696836     
   117.406568198900        47.9640222078024     
   296.759875285476        3.16246542987658     
   3.03055664394716        32.9385632540327     
   115.797509527389        13.7234420153434     
   115.773216048061        13.7144743236909     
   115.837018431562        13.7123751225443     
   115.755550340386        13.6484647989735     
   115.997211643551        13.4988814099657     
   115.907397273166        13.7074268569756     
   115.952836113351        13.6289426729852     
   115.919583868673        13.6065757283966     
   116.032047371384        12.6598712351489     
   115.784679669843        12.7995325608186     
   116.130628728386        13.3704636748451     
   116.029090653413        13.4132671834280     
   115.864246393915        13.6654267044809     
   116.021689886568        13.5899520244192     
   116.230866780162        13.2413064120622     
   116.335460873087        12.6232367838733     
   116.450701591518        13.3317885465904     
   116.030246261482        13.2955529030710     
   116.091886154936        13.5018795066456     
   115.987375493471        13.6668900222479     
   116.607028486975        12.1210291241441     
   133.485761766780        26.3245391172603     
   136.950268665148        28.7162807620536     
   140.657748215284        26.8965981671832     
   133.154052074592        24.5615006436516     
   117.805778453631        10.9074668592756     
   116.460536890695        12.9959713076044     
   117.085512170105        12.4734141481925     
   116.316815023330        11.7251853197858     
   116.070349858207        12.9652385154636     
   115.922589593493        13.4644289438087     
   116.029667813234        13.7912595030859     
   130.663571627991        26.8516875915311     
   133.079213030825        29.2694562306026     
   135.151273121110        31.9742241022907     
   144.378668968952        25.0373739499266     
   136.682549759065        24.9152964048766     
   129.924704653213        22.9155000640551     
   129.988417985240        20.5041280777989     
   118.625897972615        10.2271950440073     
   118.360455666782        11.3040407976838     
   116.902824492095        13.1724582436018     
   117.331424525365        11.7099987062802     
   117.494882982839        9.78338761875929     
   116.846515101276        11.5025185818284     
   116.156383395888        13.6558816628282     
   127.621378832390        27.7193732537133     
   129.662806966693        29.8777431812475     
   131.736786763998        32.5868839786203     
   153.727305574712        25.9095998737613     
   151.430727628545        21.5144468364167     
   148.676730197839        25.6055634052454     
   146.418852467907        21.3431033470185     
   140.001802350526        31.4352390702407     
   140.735566466752        21.6865288481225     
   138.653218538711        35.9582840428341     
   134.061308403596        20.4418725686540     
   128.121426187630        24.9502393419576     
   127.375876562410        22.3637060626758     
   129.949758374051        17.7494586070664     
   127.402813948017        19.6831424550093     
   280.155488334450        26.5531215647065     
   276.250725705854        26.9124520108196     
   278.570221634208        22.2420806737973     
   272.467513816185        27.9201697009196     
   272.484228216755        23.2413185039905     
   268.582997378445        27.1110711633252     
   266.760414046610        22.5217993820227     
   263.717990242097        26.6997357375192     
   261.588307320779        22.2068742398440     
   258.737114690011        26.4770605287434     
   256.526814712160        22.0366274380356     
   253.739412726528        26.3499771739200     
   251.500206203143        21.9394209473141     
   248.740236892953        26.2771510341889     
   246.489072860622        21.8844865569427     
   243.742805089283        26.2366322598120     
   241.486225491156        21.8546739809190     
   238.747576942500        26.2151978909571     
   236.488048209708        21.8394642309994     
   233.754023590948        26.2046311782237     
   231.492093505550        21.8325221895104     
   228.760969737253        26.2000518293280     
   226.495877921357        21.8305078796473     
   223.766192014209        26.1987959514775     
   221.495610154994        21.8321774970793     
   218.765311213796        26.1991494067573     
   216.484169548146        21.8368512156102     
   213.750059571147        26.1982540978589     
   211.445076209459        21.8400000969324     
   208.706227552914        26.1888714893844     
   206.330904680190        21.8201539690997     
   203.622006489880        26.1603276146967     
   201.059346744853        21.7164695394880     
   198.562141567502        26.1436204900378     
   196.155465467533        21.7995454012748     
   193.514927862396        26.1357278667108     
   191.052414458608        21.6518574522483     
   188.404494518118        26.1963281069935     
   185.612493496912        22.0805339929385     
   183.412769862790        26.2997776293473     
   180.924363094047        22.4066246289970     
   178.689763262915        26.1989772677493     
   176.534034551180        22.1230764938356     
   174.492237459469        25.7788571343477     
   171.979144184340        22.1099989059797     
   168.665334418292        26.1364082467179     
   166.311867564523        21.9625629082077     
   163.751574255835        26.1632993562082     
   161.500571405386        21.7833646180610     
   158.775859676644        26.0670701102166     
   156.474247691913        21.6697450588011     
   126.348608128655        17.0059331775686     
   125.586801292272        12.6901351035472     
   124.469582778661        14.8347554163898     
   123.242795861598        12.9134235679872     
   119.626240341059        10.0350110489737     
   119.527427653175        12.2299195489620     
   121.242117240089        11.5750692755976     
   116.679131769925        12.6828312962392     
   116.092829209631        14.0600821418123     
   115.971307573948        8.30143681907411     
   116.964186649890        8.64305149442013     
   116.823001546680        10.8029220698103     
   116.256574970323        13.4716768318451     
   126.501002022326        30.1782407663572     
   125.217536193082        28.3057156082553     
   128.158107332622        32.7916570348397     
   130.040891040943        35.9558605251526     
   129.600567389622        43.2146219889949     
   150.869008498746        30.2277954010116     
   149.010961745445        17.3593633542626     
   145.126851891164        29.8342028197276     
   143.934426916378        16.9219115018447     
   134.124252359876        35.8043376729820     
   138.379595939052        16.3691544119315     
   125.337927760724        26.2640545685311     
   125.224040287311        23.9153489324499     
   133.229733859999        15.0899153836279     
   124.983913377525        21.9075775532665     
   283.427034023005        28.9498397289965     
   279.130870832607        30.4554086195255     
   283.397324588745        24.2518022033258     
   274.695366877948        31.1136819018361     
   279.459015801084        17.4009429583592     
   283.214656834871        19.4162419222119     
   275.026017490166        17.9700127071363     
   270.326121522985        31.2761639343580     
   269.727852134239        18.0686735687958     
   265.744919501522        31.0621783660498     
   264.456647953238        17.8612275593271     
   260.899901988103        30.8716953576064     
   259.326627330777        17.6982573909200     
   255.958736502254        30.7428541044388     
   254.265288096938        17.5931131656023     
   250.984039867065        30.6625348423610     
   249.236373279246        17.5297410712351     
   245.997754974234        30.6152363123669     
   244.223878627990        17.4936678561435     
   241.008012132254        30.5889811236410     
   239.220091204713        17.4744167795402     
   236.017725163068        30.5753437483295     
   234.220745003580        17.4650717803570     
   231.027563039393        30.5688102981927     
   229.222854926686        17.4617424943390     
   226.036909419149        30.5660356347530     
   224.223374192584        17.4632746242756     
   221.043770542272        30.5649624402559     
   219.218147581871        17.4710989145293     
   216.044187381747        30.5636794464663     
   214.199788220239        17.4881073193160     
   211.032334425807        30.5592658703751     
   209.142172242079        17.5112860018666     
   206.004147495131        30.5483861855713     
   203.886078695861        17.4919238168923     
   200.968648823884        30.5342359272805     
   199.542263522599        15.8449488801237     
   195.934989457863        30.5231674444845     
   193.708161089518        15.8309192154396     
   190.897826683712        30.5233737742334     
   188.874584118260        15.9146593694523     
   185.883352648736        30.5258334181384     
   183.353556983580        16.2757911609298     
   180.924881561065        30.4587016288006     
   179.341325045607        18.3759379554534     
   175.832460865935        30.2130027393554     
   174.642230693487        17.5564758612181     
   171.612064180408        31.4540091120692     
   169.339814788963        19.3581899393249     
   166.035585573609        30.6440489571644     
   164.385326672866        17.3710509772438     
   161.046925122000        30.5134367674315     
   159.121097611537        17.4952874442770     
   156.012195223242        30.4014324189313     
   153.985892214433        17.4144988192820     
   124.325226117639        19.1088690924882     
   128.279077103555        14.5355273265415     
   123.319950954291        16.8497107578160     
   121.971136144577        15.0404316283237     
   120.668609030477        13.4776522129453     
   123.863076772733        10.1776267701814     
   117.946573798801        12.7269209539748     
   121.358392900587        9.37939847960591     
   116.219615560748        13.8646149241638     
   115.905572022756        9.65426642094931     
   119.183002558609        8.61306689864134     
   12.2928861223871        21.2302830206619     
   16.8104854995437        19.3160564929547     
   12.7269062246991        16.1872180220623     
   21.3810218402899        17.7376946630655     
   17.4931908301966        13.6711811619092     
   124.607560054725        32.5814087077629     
   123.468705262785        29.9192021019682     
   126.109760516562        35.7239707047852     
   127.794426225566        39.3352082803252     
   148.148675990909        34.7810724407072     
   146.166005932049        13.1404391504144     
   143.116674227027        35.1421987768547     
   142.148958965011        12.7150724254416     
   122.725702779935        25.2342717450945     
   122.634958834641        22.8549817004962     
   136.016422349359        39.5727885892175     
   122.897600368635        27.5540214652951     
   136.713053564474        11.6554323058994     
   287.417889694848        35.7927928452064     
   287.487978571921        31.5430703067195     
   282.852956134325        34.3077665614821     
   287.537974087581        26.6232156957319     
   277.405078388001        34.9361584098728     
   287.476920380645        21.7676690812024     
   277.507006467175        13.4607345584838     
   272.595726617254        35.2267994653669     
   287.652481297265        12.6476524747457     
   287.410314997239        16.9123269152664     
   282.970750293610        13.9661576114832     
   272.399271675918        13.4617067793271     
   267.877639576464        35.2702937681943     
   267.229727713341        13.4137036110894     
   263.076665197897        35.1903429216479     
   262.094018917652        13.3136483777326     
   258.180582486335        35.0995667565916     
   257.013957522777        13.2272521629639     
   253.232302882920        35.0301015560893     
   251.971322989625        13.1675316540033     
   248.259912614189        34.9843767155035     
   246.950273386627        13.1306215398135     
   243.277428840021        34.9570355557319     
   241.941189540057        13.1096721070005     
   238.291232520075        34.9419634295978     
   236.938496884604        13.0988168472220     
   233.303926314676        34.9342890210397     
   231.938728498653        13.0942038993295     
   228.316230079420        34.9306957412770     
   226.939248176372        13.0943871933242     
   223.327707320904        34.9290983567706     
   221.937735140054        13.1010271459927     
   218.336810954248        34.9280323204762     
   216.933263725587        13.1204060410203     
   213.340929936316        34.9260065832557     
   211.931031010491        13.1659646744657     
   208.337607956878        34.9214289791180     
   206.977053933083        13.2643420133989     
   203.327504480657        34.9138620988172     
   202.570600256212        13.4965973357805     
   198.314411821525        34.9044145394055     
   197.532038037784        13.7421518779374     
   193.301625172949        34.8939809825894     
   191.716877504838        11.9308207021405     
   188.295568036935        34.8780979810892     
   186.928609362347        12.7505204157456     
   183.308274822403        34.8368119951165     
   181.933582322151        12.8652164380227     
   178.373728930399        34.7369559071773     
   177.518975752790        13.4534153431736     
   174.053123557675        34.5959293894983     
   172.803316612731        12.8052151079169     
   168.270447480292        35.0653816102101     
   166.969474684607        12.9755298574891     
   163.333154991919        34.9682585883996     
   162.194036974968        12.9739293174594     
   158.339067175664        34.8714838510666     
   157.011946055142        13.0473234513059     
   153.283350640420        34.7970725526317     
   151.786728031055        12.9988876064424     
   131.897223960452        11.2263792575836     
   121.754975959003        21.0542780276194     
   121.649875456892        18.5861964557538     
   120.873754224144        16.7208811305437     
   119.871803015998        15.1392924926217     
   127.501841472607        10.0840675218805     
   118.912755702463        13.8902845838657     
   116.491581116916        13.6753168777957     
   123.280443626331        7.40473584425198     
   117.517734960694        6.49617025464732     
   114.402009698034        9.84942432828859     
   116.014020079485        11.0724363346884     
   112.236484839885        7.93495732825094     
   107.721228607165        8.34796880392267     
   110.971501205265        10.0088109475209     
   100.122024534538        5.67796210704219     
   33.2832398485225        11.9703510420696     
   28.2627416400449        13.3754999344122     
   25.2735130319538        16.7419788180710     
   22.9905799978073        13.1734803564193     
   12.9735262671057        11.9109791731556     
   7.45763528562452        27.7399248985637     
   7.93846491384906        23.1249567514603     
   11.7702104176038        26.1175127178677     
   16.2408467078773        24.4069513364427     
   8.26817118982437        18.2216850424523     
   20.7223602523114        22.6491011968431     
   122.127049372581        35.1030838063254     
   123.538791865900        38.7210284871801     
   120.976405611605        31.8986856343955     
   124.999592247964        42.8438642781937     
   145.740119659107        39.3078775452280     
   134.019729025894        44.3738691361941     
   144.530740657138        8.18731482306123     
   120.012590737464        24.3055624327024     
   141.146392803563        39.5214615295714     
   120.054133838762        26.5868103211042     
   120.350507969822        29.0973456019393     
   139.314033879080        7.67699248663703     
   294.588799399790        39.0901921119301     
   289.789708060623        39.3156087942195     
   291.937176258827        34.5040647513662     
   285.023756150789        39.3101198644394     
   291.756286527306        29.1037319444972     
   280.080427037323        39.1931627953048     
   291.682546149381        24.1525013747615     
   275.079516044151        39.3524748257884     
   290.980943179731        9.03983910552524     
   291.527591060822        14.4262841694721     
   285.371056007946        8.92272832994265     
   291.617785783198        19.2831264788911     
   280.176301564384        9.04162116856476     
   275.002298653716        8.97083661896853     
   270.198584272655        39.4478003766664     
   269.890690915298        8.93684403988609     
   265.336622658413        39.4549349024086     
   264.794351147721        8.89060693714959     
   260.438686297244        39.4174496968671     
   259.724069005641        8.83746358906708     
   255.500988573321        39.3737421462857     
   254.680803943663        8.79337367317590     
   250.537814580774        39.3391154967558     
   249.656999178562        8.76286309981911     
   245.561452971918        39.3160482554000     
   244.645246431025        8.74413058284647     
   240.579166355144        39.3023401956766     
   239.640375993147        8.73373286631993     
   235.594573052816        39.2949208191637     
   234.639066396860        8.72871941391932     
   230.609200549291        39.2912360288564     
   229.639062086711        8.72753926984028     
   225.623441687144        39.2895302185982     
   224.638744999929        8.73085933189161     
   220.636958305685        39.2886596330585     
   219.637932416489        8.74325476608697     
   215.648797999236        39.2877466844298     
   214.640639385947        8.77685692206481     
   210.657708746237        39.2859465042740     
   209.654242976055        8.85959891883296     
   205.663052794841        39.2825780935172     
   204.615797190066        9.06171601464577     
   200.665602614708        39.2772853742075     
   199.302109796170        8.44112090385939     
   195.667129050814        39.2695850683584     
   194.679806603719        9.26426102221906     
   190.669625371517        39.2578095446666     
   190.099471750800        8.92314314644849     
   185.672923739774        39.2384450064432     
   184.690554323185        9.65057977986618     
   180.657328868703        39.2086743243437     
   178.924654819608        8.79209842058674     
   175.435726898942        39.1468395801401     
   175.026599201374        8.70799716671350     
   171.144748633187        40.4403650314203     
   170.418990010709        8.86328321270642     
   165.635513533413        39.4535465710454     
   165.212264496978        8.73613367488128     
   160.683888526487        39.3015743774975     
   159.762597758129        9.09227987994007     
   155.689716792051        39.2484944907451     
   154.778539128889        8.56674456643497     
   150.676157153867        39.2364150711960     
   149.682114213815        8.49705125039108     
   120.116811848928        22.4030409705626     
   134.657830140112        7.14507904685255     
   119.775735282021        20.0178771615527     
   119.372998889492        18.1742196682571     
   118.785779654122        16.5803315790029     
   130.299985994190        6.42522224601766     
   118.040196885010        15.2940436833042     
   117.242202037447        14.1148068838343     
   126.230707131278        6.95275479119965     
   120.805834721618        5.90728958648609     
   112.543251000143        11.1195863886368     
   113.384192194936        11.4925277182939     
   115.893279090917        12.1930224648331     
   115.361633867519        6.00805985245386     
   114.871397496288        11.7393225192842     
   109.835716935868        7.42495998447191     
   109.971090838079        10.9953842356224     
   111.336780729901        11.2003456537114     
   109.070923201452        10.4368034068126     
   106.689892172643        10.7417439185073     
   105.083215963274        7.89219582788750     
   105.935060946497        10.0167968696858     
   103.629699481386        9.46638126420150     
   101.947718969787        8.25615887819777     
   100.024996877675        9.02192788694272     
   98.2097038298892        7.64575164660983     
   96.0880421951047        7.76262314723975     
   94.2744446438500        7.17102207869471     
   44.0881463899581        8.53909175250266     
   41.7434684995036        11.9817686158605     
   39.7101383724890        8.34177384242036     
   37.0380865415741        13.0396505824005     
   34.3840585752985        7.55127520957319     
   32.1358868707546        16.2142669701031     
   30.1198507650839        8.26145059522482     
   28.7323249263763        18.5426084165905     
   25.2889300277065        8.69128898508857     
   24.9848901479998        20.8527135533155     
   20.2324101319142        8.79630064618577     
   15.3315631312896        8.55897475138902     
   8.52107520148831        12.7628725434338     
   10.7937292626613        8.36370546515742     
   6.94607675471812        8.30273001413027     
   3.49542368678922        29.3664062776776     
   6.66502714982392        31.9955302585478     
   3.81899345837368        25.0242065661251     
   11.0569555068545        30.8096647336533     
   4.02214190192738        20.4132014953336     
   15.6328045513639        29.3894103768563     
   20.2123828935171        27.7310154299310     
   119.502259427937        37.7471160309404     
   117.729440139264        34.0356026800641     
   120.283633963080        41.6228227581132     
   120.108756914897        45.8221171832740     
   131.989529516278        39.6779861116852     