 TITLE = "Adapted Mesh"
 VARIABLES = "X", "Y"
 ZONE T = "Domain", N=       12566 E=       20571 
 DATAPACKING=POINT, ZONETYPE=FEQUADRILATERAL
   115.652200000000        13.7382300000000     
   115.652200000000        14.7816554182814     
   115.652200000000        15.9533774773651     
   115.652200000000        17.2659318281530     
   115.652200000000        18.7393913154639     
   115.652200000000        20.3916177555449     
   115.652200000000        22.2458027109019     
   115.652200000000        24.3256223919252     
   115.652200000000        26.6588310806039     
   115.652200000000        29.2760970634487     
   115.652200000000        32.2129841762114     
   115.652200000000        35.5070363954620     
   115.652200000000        39.2030815715862     
   115.652200000000        43.3491316899287     
   115.652200000000        48.0000000000000     
   115.662200000000        13.7382299995359     
   115.664940905772        14.7816554176901     
   115.668018825858        15.9533774766309     
   115.671466689049        17.2659318272589     
   115.675337223113        18.7393913143901     
   115.679677348624        20.3916177542697     
   115.684547985713        22.2458027094007     
   115.690011327765        24.3256223901704     
   115.696140280880        26.6588310785647     
   115.703015405500        29.2760970610903     
   115.710730121937        32.2129841734950     
   115.719383052002        35.5070363923440     
   115.729091951042        39.2030815680176     
   115.739982938596        43.3491316858547     
   115.752200000000        47.9999999860769     
   115.673399961357        13.7382005785724     
   115.679210671002        14.7816179327160     
   115.685735849691        15.9533309361171     
   115.693045306332        17.2658751428010     
   115.701250823590        18.7393232424483     
   115.710451872904        20.3915369132577     
   115.720777604710        22.2457075385057     
   115.732359868749        24.3255111455966     
   115.745353225669        26.6587018020187     
   115.759928463297        29.2759475572643     
   115.776283632330        32.2128119722288     
   115.794627810631        35.5068387333227     
   115.815210639078        39.2028553444786     
   115.838299490607        43.3488734199794     
   115.864199613574        47.9997057660324     
   115.685943766846        13.7381307225185     
   115.695192615377        14.7815289297718     
   115.705578677154        15.9532204320321     
   115.717213066316        17.2657405533083     
   115.730273706217        18.7391616149323     
   115.744918924553        20.3913449673312     
   115.761354288783        22.2454815682317     
   115.779789662823        24.3252470105704     
   115.800471059316        26.6583948525408     
   115.823670319538        29.2755925808765     
   115.849702678808        32.2124031038736     
   115.878900924275        35.5063694190097     
   115.911662406827        39.2023182076248     
   115.948412701302        43.3482602029806     
   115.989637668458        47.9990071938160     
   115.699992494923        13.7380061916946     
   115.713091967442        14.7813702662151     
   115.727802115452        15.9530234388731     
   115.744280313856        17.2655006236320     
   115.762778561815        18.7388734851769     
   115.783521104464        20.3910027896240     
   115.806799094296        22.2450787360818     
   115.832909769024        24.3247761429711     
   115.862201565089        26.6578476605765     
   115.895059500939        29.2749597724149     
   115.931930055550        32.2116742234080     
   115.973284567173        35.5055327828879     
   116.019685817979        39.2013606657776     
   116.071736564718        43.3471670347615     
   116.130124949231        47.9977618724768     
   115.715726448500        13.7378086506257     
   115.733138449436        14.7811185809890     
   115.752691382621        15.9527109520690     
   115.774594432963        17.2651200273811     
   115.799182561249        18.7384164299832     
   115.826753837230        20.3904599991091     
   115.857695264846        22.2444397304849     
   115.892401936596        24.3240292139301     
   115.931336999040        26.6569796595299     
   115.975012224051        29.2739559594151     
   116.024021077688        32.2105180130679     
   116.078990069306        35.5042056416342     
   116.140667256790        39.1998417338853     
   116.209853832786        43.3454329611267     
   116.287464484998        47.9957864470882     
   115.733347411513        13.7375145701526     
   115.755589152372        14.7807438958118     
   115.780565677157        15.9522457512490     
   115.808544194475        17.2645534316539     
   115.839952576518        18.7377360094084     
   115.875171571611        20.3896519438913     
   115.914695530825        22.2434884393465     
   115.959029137397        24.3229172565684     
   116.008764005457        26.6556874616090     
   116.064553862132        29.2724615774945     
   116.127156789066        32.2087967563904     
   116.197373076749        35.5022299191678     
   116.276158279319        39.1975804916430     
   116.364535824202        43.3428514361918     
   116.463674115126        47.9928456258582     
   115.753081153907        13.7370938441151     
   115.780731727608        14.7802078527069     
   115.811782140601        15.9515802119986     
   115.846564582321        17.2637428318456     
   115.885610976578        18.7367625661559     
   115.929394663551        20.3884959002199     
   115.978530212525        22.2421274752986     
   116.033645037563        24.3213264354926     
   116.095474623814        26.6538387794945     
   116.164831674307        29.2703236409723     
   116.242658623920        32.2063342416451     
   116.329950380888        35.4994033531071     
   116.427894874716        39.1943454469006     
   116.537764413879        43.3391581792237     
   116.661011539058        47.9886383469610     
   115.775180205266        13.7365080476308     
   115.808887920709        14.7794614948915     
   115.846740245108        15.9506535506601     
   115.889142137401        17.2626141959269     
   115.936742044765        18.7354071957150     
   115.990116997395        20.3868862866993     
   116.050016192287        22.2402325415805     
   116.117204484985        24.3191114611143     
   116.192578476203        26.6512647731656     
   116.277128899903        29.2673468922410     
   116.372004640990        32.2029055675156     
   116.478418552550        35.4954677933523     
   116.597818792229        39.1898411432262     
   116.731756380723        43.3340158852969     
   116.882002052644        47.9827803613184     
   115.799926915790        13.7357082456092     
   115.840417471403        14.7784424746248     
   115.885886635539        15.9493883576593     
   115.936820855065        17.2610732421765     
   115.993999061033        18.7335566758710     
   116.058114396629        20.3846886426671     
   116.130066816130        22.2376453430239     
   116.210775083253        24.3160873033510     
   116.301316217327        26.6477504204497     
   116.402880312905        29.2632826656418     
   116.516847439433        32.1982243163067     
   116.644674506544        35.4900944790144     
   116.788101077626        39.1836913091432     
   116.948990277750        43.3269949877859     
   117.129469157873        47.9747823177378     
   115.827636819895        13.7346322372411     
   115.875722399115        14.7770715424382     
   115.929720450291        15.9476862386105     
   115.990208665658        17.2590001302244     
   116.058112084400        18.7310670912193     
   116.134253866166        20.3817320567810     
   116.219702774333        22.2341646725311     
   116.315549909891        24.3120187726750     
   116.423074314270        26.6430224092312     
   116.543689314241        29.2578148852256     
   116.679033846031        32.1919264259066     
   116.830838099374        35.4828655260538     
   117.001167936590        39.1754176704715     
   117.192235958785        43.3175494696836     
   117.406568198900        47.9640222078024     
   296.759778600880        3.16104615314077     
   3.03072561190165        32.9384673287684     
   115.796887996429        13.7194481765876     
   115.776571803301        13.7157027450336     
   115.837028077928        13.7134746991928     
   115.754239635113        13.6492169748256     
   115.998092118087        13.5106583372463     
   115.908881536896        13.7047607971199     
   115.956970808908        13.6208110616919     
   115.923557757987        13.6055237533874     
   116.028875532116        12.6597377497001     
   115.784779496571        12.7999367561211     
   116.133398760337        13.3839467822603     
   116.026515075624        13.4389122429320     
   115.866502667515        13.6667936412776     
   116.024752243379        13.5822555371955     
   116.204661490445        13.2442645205707     
   116.336960765118        12.6215013580081     
   116.453855150749        13.3167363534078     
   116.023147079120        13.2842383964477     
   116.097804721564        13.5067575942141     
   115.987755443244        13.6620734291974     
   116.608052177718        12.1231318478091     
   133.545853640197        26.2760066635344     
   136.985764084699        28.6653971647684     
   140.675319495111        26.8684055871007     
   133.210783411363        24.5230455518540     
   117.767675547236        10.9505299046553     
   116.464598702997        13.0204498108136     
   117.087602038192        12.4694359630739     
   116.314994604311        11.7234575897527     
   116.065878001935        12.9722085820332     
   115.928949589314        13.4664868816292     
   116.028334675043        13.7912436950874     
   130.743746996420        26.8001329859208     
   133.147008298670        29.2111309881853     
   135.199614079608        31.9140929572994     
   144.388648578407        25.0266007547273     
   136.717742714895        24.8809250301711     
   129.972321503782        22.8881769196269     
   130.004126590604        20.5018430242778     
   118.746525623291        10.3177651296404     
   118.473224212642        11.2774205513799     
   116.882078164272        13.1746209606442     
   117.360354587030        11.7467449756645     
   117.615785073780        9.88522297573572     
   116.865572329474        11.5185765367399     
   116.152253794416        13.6580441695961     
   127.735470688859        27.6638820896156     
   129.770541138725        29.8136216193675     
   131.831577627270        32.5124798477309     
   153.742598452553        25.9078993306477     
   151.484328702534        21.4488068401535     
   148.688839756695        25.5998247843387     
   146.431216338164        21.2924580205806     
   140.015215355668        31.3959323526488     
   140.738347312612        21.6789344487050     
   138.657929520272        35.9153362902058     
   134.071323107527        20.4730331032580     
   128.201118183955        24.9062398364129     
   127.421822568782        22.3307690024760     
   129.961221158733        17.7655238030155     
   127.417946580331        19.6618089054419     
   280.156366164407        26.5303635684772     
   276.251361691091        26.8869618902077     
   278.572562407652        22.2161962776420     
   272.466782601457        27.8931913425651     
   272.486561600795        23.2124218245781     
   268.581430131610        27.0834138238721     
   266.763059860632        22.4922790046156     
   263.714910686810        26.6734741585725     
   261.590790144514        22.1798572873275     
   258.732415902088        26.4544764448985     
   256.529122068339        22.0141929026875     
   253.733475024816        26.3325117743746     
   251.502601055411        21.9224782024325     
   248.733666778116        26.2651297692100     
   246.491871613254        21.8728306559052     
   243.736167251771        26.2294365922337     
   241.489647610049        21.8473332741773     
   238.741266095109        26.2116748807140     
   236.492236205365        21.8351263197134     
   233.748357044802        26.2034877604897     
   231.497365872054        21.8297878474340     
   228.756582678530        26.2000504068855     
   226.503289784368        21.8277904269454     
   223.764920994390        26.1987198373748     
   221.507870820381        21.8272129319157     
   218.771743217034        26.1977604673666     
   216.506541991802        21.8266812819201     
   213.772716943235        26.1949897653567     
   211.484113623790        21.8248875870115     
   208.752579954829        26.1841533071677     
   206.386615311764        21.8015008659748     
   203.676410195850        26.1409102890639     
   201.071427604783        21.5757143680283     
   198.563496093657        26.1069524621325     
   195.791992117868        21.7384192586082     
   193.475682033108        26.0869655783276     
   190.641751806671        21.7267883437477     
   188.435637106036        26.0702025624802     
   185.586538416160        21.8308474487235     
   183.481619717992        26.0881331093156     
   180.802551115082        22.0517736165551     
   178.704391128856        26.0386866906928     
   176.340905235924        22.0054783743461     
   174.515429720291        25.7858756362017     
   172.083684391574        22.4617363466214     
   168.718464617975        26.1506133270200     
   166.412335982035        21.8447966793389     
   163.775069460181        26.1524799846700     
   161.525632413549        21.7630637778095     
   158.791731756484        26.0651736354555     
   156.529390690038        21.6326141994987     
   126.433301842832        16.9102922619317     
   125.499818073647        12.6797965828670     
   124.905296266389        14.5447149656362     
   123.210476709433        13.1397816411279     
   119.707380789901        10.5955389301331     
   119.532169458809        12.2469186841037     
   121.188043602254        11.5498364585906     
   116.674280735592        12.6661783513127     
   116.098346821118        14.0418770657799     
   115.685876124063        8.14702882752258     
   117.175946695926        8.64564347786687     
   116.884076482572        10.8385356123692     
   116.258916927131        13.4683663733457     
   126.649522060049        30.1118957644924     
   125.361647924817        28.2501868498067     
   128.311135364585        32.7045212134455     
   130.205858832995        35.8325204810797     
   130.200210078362        42.6695954974597     
   150.870201160819        30.2302002893513     
   149.058164319368        16.9815443894599     
   145.131977499996        29.8218860033520     
   143.839387879343        16.8610369523620     
   134.196140818640        35.7241168020620     
   138.321826179047        16.4296553520823     
   125.455108056716        26.2154633350392     
   125.307584236241        23.8727945013595     
   133.308623244541        15.3310061498780     
   125.035149355386        21.8688251726125     
   283.426902672574        28.9326868941743     
   279.130325813315        30.4355709019288     
   283.398224428962        24.2312979622476     
   274.693550694506        31.0914300110265     
   279.462470195099        17.3751472694217     
   283.216378443363        19.3942666677370     
   275.030765824718        17.9416665575221     
   270.322245342422        31.2526900537583     
   269.733972647215        18.0390941780807     
   265.738468480813        31.0391571673853     
   264.463999418085        17.8328295699714     
   260.890636659659        30.8511418356829     
   259.335008965621        17.6733349506474     
   255.946979412942        30.7264283765391     
   254.274656264701        17.5730368311821     
   250.970516441929        30.6510193923018     
   249.246762087436        17.5147850479291     
   245.983286566778        30.6084653592682     
   244.235287133516        17.4832127853693     
   240.993271997323        30.5861131225411     
   239.232465297279        17.4673325794467     
   236.003174481052        30.5752563306474     
   234.234115491635        17.4600196626066     
   231.013619127915        30.5704147749858     
   229.237621326483        17.4571304082512     
   226.024438405394        30.5684306624314     
   224.240506440159        17.4565589106574     
   221.035091381490        30.5675057080976     
   219.238500590486        17.4572948354618     
   216.044488360581        30.5661334590445     
   214.221358352892        17.4602344688609     
   211.049588309689        30.5617207080460     
   209.161259063963        17.4721421903537     
   206.042883625914        30.5485554420699     
   203.972279634862        17.4671579759929     
   201.021079776564        30.5249692615937     
   199.173575937460        16.2499965651385     
   195.994565618910        30.4945244987446     
   193.809041931259        16.0060191163073     
   190.976805434345        30.4607527578444     
   188.664644807849        16.2396825366031     
   185.978330495593        30.4245152235742     
   183.291860108731        16.8018230735814     
   180.998750972814        30.3542378616145     
   178.770643587164        17.7987338170427     
   175.868523128341        30.1639082459399     
   174.023081455509        17.2135538167786     
   171.624390898214        31.4411085350130     
   170.153471438529        18.4765674647760     
   166.039908747502        30.6374423731187     
   164.176966108338        17.5784157623441     
   161.050262078193        30.5124726514214     
   159.163983336848        17.4317939486732     
   156.013246414218        30.4059352359272     
   154.172340059957        17.1675477790484     
   124.352890941481        19.0690296052239     
   128.524846020021        14.5556123089601     
   123.376879900774        16.7356372188245     
   122.018217983272        14.9903408695577     
   120.558909790227        13.4916829324225     
   123.757061491244        10.0399451895209     
   117.885517481861        12.7569621333478     
   121.165878692894        9.43945272733272     
   116.220276140989        13.8624384489306     
   116.158612864320        9.84257790771304     
   118.998457872821        8.62896089196589     
   12.2937007002690        21.2335636085500     
   16.8131410265114        19.3230853032358     
   12.7274362877863        16.1920696682232     
   21.3870058550810        17.7492639389798     
   17.4959114232810        13.6803408452293     
   124.795579667996        32.4973840821193     
   123.629063496746        29.8616884148362     
   126.349464958892        35.5874676334707     
   128.154970132520        39.0938426767586     
   148.144359549592        34.7781757322025     
   146.204544535553        13.0965355601122     
   143.111753231085        35.1216985265098     
   141.190914841632        12.8334446785756     
   122.836239668627        25.1948901273100     
   122.715204563463        22.8169788972635     
   136.059667242756        39.5078100823443     
   123.034959730517        27.5091948752938     
   136.781835888727        11.7580707761646     
   287.416693337512        35.7852328855570     
   287.487148272614        31.5322568931455     
   282.851770777585        34.2953661116475     
   287.537743904041        26.6090000501295     
   277.402885409809        34.9205464684603     
   287.477226758121        21.7511823943048     
   277.511519511841        13.4365941154746     
   272.591557474546        35.2093096240537     
   287.653088143763        12.6327997455496     
   287.410947458580        16.8955612160331     
   282.972935971500        13.9461245462530     
   272.405947211596        13.4356234292360     
   267.870655642043        35.2523633088152     
   267.238454666448        13.3877151205976     
   263.066431046130        35.1736382179807     
   262.104607542390        13.2897981732815     
   258.167209752572        35.0856523568874     
   257.026217169483        13.2070578423021     
   253.216403075496        35.0199907380779     
   251.985093792705        13.1516389881172     
   248.242341659219        34.9783068168854     
   246.965383409577        13.1188241098686     
   243.259003257895        34.9545610406560     
   241.957436180893        13.1011764809256     
   238.272562188521        34.9422490467943     
   236.955717318591        13.0925370815397     
   233.285422377198        34.9364236460683     
   231.956943013157        13.0888309844766     
   228.298310380106        34.9339076559251     
   226.958594395982        13.0878847009021     
   223.311267807909        34.9328720801424     
   221.957087646132        13.0888556170912     
   218.324024043507        34.9322052998081     
   216.945001318027        13.0917215059753     
   213.335955022150        34.9307718660924     
   211.909851603249        13.1001487709934     
   208.345659554906        34.9266285831508     
   206.863015125724        13.1291243794668     
   203.351447730464        34.9172885371787     
   202.124935760544        13.2291719716675     
   198.353341734252        34.9011868194016     
   197.243337384509        13.9588164072726     
   193.353645956394        34.8781599764141     
   191.960663888350        12.1261403485554     
   188.355301686013        34.8464984217085     
   187.064635774123        13.0826926211872     
   183.361356303946        34.7955860882909     
   181.450764367505        13.4306423679508     
   178.405762091159        34.7018196944065     
   177.643786309626        14.1706621213556     
   174.062895153802        34.5739418742263     
   172.385797040720        12.8704495201157     
   168.265207632887        35.0471399077692     
   167.202722121086        12.8887076066873     
   163.331605709677        34.9578404627322     
   161.930417789694        13.0470689347048     
   158.336251264449        34.8724836259167     
   157.047959880355        12.9464016446031     
   153.279290903128        34.8007864854481     
   151.609497701661        13.3155145484392     
   131.560319731273        11.0049187547124     
   121.820028411544        21.0192031445524     
   121.684455703144        18.5608934420561     
   120.912430205859        16.7003401347212     
   119.953509977363        15.1307775558628     
   127.495525379468        10.1642959730023     
   118.947511831371        13.8800642671167     
   116.495350284832        13.6737619916861     
   123.412586308938        7.94802175406484     
   117.439825365406        6.59920098816356     
   114.375803768190        9.70713031894038     
   116.042386523444        11.0123942619682     
   112.242800001261        7.95402118859120     
   107.675065728037        8.32618066334999     
   111.108800451836        10.0355074183328     
   100.120475551057        5.49363772142324     
   33.2902543599606        11.9928816529604     
   28.2714506012641        13.3933320526974     
   25.2827223569406        16.7570819038052     
   22.9970457891102        13.1881682641133     
   12.9734209241328        11.9162331086203     
   7.45805658066914        27.7402093214252     
   7.93872567771415        23.1259597234574     
   11.7709637771015        26.1190850616701     
   16.2427008957836        24.4109789038962     
   8.26797984076160        18.2235757328973     
   20.7266157618481        22.6563920205774     
   122.354445447420        34.9992721793089     
   123.917447767583        38.5391219929044     
   121.122762202379        31.8437842164664     
   125.754680683392        42.5763388418861     
   145.729949200868        39.3062351689144     
   134.113552875043        44.2752814930309     
   144.640558084111        8.28936974129045     
   120.095196760843        24.2797732627794     
   141.134683864067        39.5061170732169     
   120.148982689961        26.5605305955227     
   120.464385542863        29.0630222911647     
   139.497804070061        7.95660555239160     
   294.588171254456        39.0881434178524     
   289.788712639330        39.3116388676124     
   291.936277312003        34.4987864589513     
   285.022505011756        39.3037746230923     
   291.755572474236        29.0956237718360     
   280.078613844366        39.1842089121416     
   291.682108042822        24.1421974917961     
   275.076382466747        39.3415958306262     
   290.981040345601        9.03137781098315     
   291.527500937975        14.4153750847464     
   285.372184209171        8.90959482534937     
   291.617564439888        19.2717253278766     
   280.179128806288        9.02488100033832     
   275.007171507403        8.95179388903437     
   270.193318982251        39.4359728653932     
   269.897628398693        8.91710085330368     
   265.328653756804        39.4433390087722     
   264.803241255618        8.87175184172574     
   260.427881765016        39.4072964854130     
   259.734732199102        8.82081304881150     
   255.487679577744        39.3659785997180     
   254.693037253582        8.77969265998033     
   250.522643777376        39.3341887956709     
   249.670581784228        8.75227210937060     
   245.545140843737        39.3138676454189     
   244.659936358762        8.73622629655539     
   240.562320751232        39.3024272725356     
   239.655944953231        8.72780417947517     
   235.577613894755        39.2966390753226     
   234.655379723441        8.72387938150438     
   230.592411930660        39.2939881960614     
   229.656048548437        8.72253258357290     
   225.607153628811        39.2928782822345     
   224.655512743077        8.72303513935279     
   220.621882641404        39.2923963858864     
   219.648878005236        8.72543255421946     
   215.636461196847        39.2919416653758     
   214.625307415123        8.73014650899388     
   210.650575911203        39.2908232436404     
   209.563488386264        8.73928959102921     
   205.663705437758        39.2879860912883     
   204.387307222226        8.74761352763332     
   200.675286908372        39.2821086049774     
   199.424278329450        8.45557798349093     
   195.684992216280        39.2718642533667     
   194.704907226369        9.26694806487955     
   190.692455972926        39.2556160786536     
   189.803308307929        8.91330267035478     
   185.694864239073        39.2311511771907     
   185.507826885161        10.2354980238970     
   180.671928980606        39.1975587672012     
   179.190489571994        8.50430920727145     
   175.439923830975        39.1324322933508     
   174.643522525408        8.49936445246514     
   171.143397234031        40.4220535485111     
   170.086885152310        8.87369907700299     
   165.636599568276        39.4335437890265     
   165.278566975045        8.84872020175454     
   160.682983743650        39.2956984088046     
   159.668546846733        8.80926351691632     
   155.685722254366        39.2510311122557     
   154.650817442225        8.55781049429849     
   150.670418049835        39.2394845802718     
   149.768074919425        8.42517143856576     
   120.200102788432        22.3731542501152     
   134.491460795095        7.71137252342204     
   119.855759810575        19.9933996063383     
   119.438939296113        18.1629239432083     
   118.856591323028        16.5653369207158     
   129.961887001208        6.09725774375790     
   118.110235225215        15.2758182914154     
   117.255220447328        14.1049663486202     
   126.284158592919        7.08271599202619     
   120.501972211766        6.16842613539116     
   112.383204080661        11.0660606975474     
   113.394232603217        11.5163397991758     
   115.893233767772        12.1909953543767     
   114.953688932492        6.05453769516008     
   114.873607897355        11.7275299503993     
   109.950523415220        7.49311750879010     
   110.018742253012        11.1084528577335     
   111.242580213237        11.4122200486738     
   108.961988971589        10.3311205719943     
   106.814557963980        10.5366458029040     
   105.331786875806        7.86360197172202     
   105.909975477335        9.90502351157069     
   103.801547340733        9.27576269647306     
   102.018753095717        8.18308804612904     
   100.112627601702        9.06017304858736     
   98.2757776233987        7.73897987419681     
   96.0694322120630        7.82640861904517     
   94.2562362510905        7.16911884109259     
   44.3722863470162        8.77004763727473     
   41.6918860590141        11.9907863457183     
   39.7209912315363        8.38435438996468     
   37.0436560005572        13.0615312031302     
   34.3842829706017        7.57812733499486     
   32.1472630800518        16.2291400869446     
   30.1241887798783        8.28148695731806     
   28.7426910123840        18.5553090520177     
   25.2939921039315        8.70659187328689     
   24.9924825599502        20.8630799650605     
   20.2355281126529        8.80701387876958     
   15.3321827260946        8.56529964237968     
   8.52030974863252        12.7652916166846     
   10.7928744075659        8.36685295270348     
   6.94490112910657        8.30409159749922     
   3.49566723063523        29.3663296777970     
   6.66530680563215        31.9955055580745     
   3.81916406692421        25.0243094286801     
   11.0573800304783        30.8100891418359     
   4.02203853187178        20.4136361181986     
   15.6336368036974        29.3908847795800     
   20.2142723549578        27.7340836960550     
   119.756493013823        37.6463821236754     
   117.791186089020        34.0095063759722     
   120.640755438902        41.5025952754847     
   120.611316247713        45.8002969465587     
   132.178307533798        39.5001711142538     