 TITLE = "Edge Error"
 VARIABLES = "X", "Y","Estimate1" 
 ZONE T = "Domain", I=       41466  DATAPACKING=POINT, ZONETYPE=ORDERED
   115.652512500000        13.7382300000000       7.061758431567727E-003
   115.652200000000        13.7708370500000       0.971899778135543     
   115.652830500000        13.7708370500000       0.838045501607589     
   115.652518000000        13.8034441000000       9.478444981902388E-003
   115.653137500000        13.7382300000000       7.061758431407161E-003
   115.653460500000        13.7708370500000       0.604895003370273     
   115.653153500000        13.8034441000000       8.160181401762641E-003
   115.652841000000        13.8360511500000       0.838045499538525     
   115.653482000000        13.8360511500000       0.604895006428259     
   115.653169500000        13.8686582000000       1.271073864765473E-003
   115.652200000000        13.8360511500000       0.971899778135543     
   115.652523000000        13.8686582000000       1.278531134563754E-003
   115.653762500000        13.7382300000000       4.411688364891570E-003
   115.654091000000        13.7708370500000       0.532886695022331     
   115.653789000000        13.8034441000000       5.899233481673843E-003
   115.654387500000        13.7382300000000       5.079702512955438E-003
   115.654721500000        13.7708370500000       0.570065305551043     
   115.654425000000        13.8034441000000       5.559556223517959E-003
   115.654123000000        13.8360511500000       0.532886695022331     
   115.654764500000        13.8360511500000       0.570065305551043     
   115.654462500000        13.8686582000000       1.558678038274244E-003
   115.653816000000        13.8686582000000       1.444154489432126E-003
   115.653503500000        13.9012652500000       0.128117376231571     
   115.654155000000        13.9012652500000       0.145788307472057     
   115.653842500000        13.9338723000000       4.340231449816154E-004
   115.654807000000        13.9012652500000       0.157106347042241     
   115.654499500000        13.9338723000000       4.933522825479336E-004
   115.654187000000        13.9664793500000       6.949188634602210E-002
   115.654849500000        13.9664793500000       6.775714066825343E-002
   115.654537000000        13.9990864000000       7.118180652793209E-004
   115.653525000000        13.9664793500000       6.771478646750551E-002
   115.653869500000        13.9990864000000       7.107524693607687E-004
   115.652200000000        13.9012652500000       0.129068509693707     
   115.652851500000        13.9012652500000       0.123424277191295     
   115.652528500000        13.9338723000000       2.845192894221788E-004
   115.653185500000        13.9338723000000       3.495645066875161E-004
   115.652862500000        13.9664793500000       6.231119920667617E-002
   115.653202000000        13.9990864000000       6.936149511639247E-004
   115.652200000000        13.9664793500000       5.857451591160696E-002
   115.652534000000        13.9990864000000       6.382650451086076E-004
   115.655012500000        13.7382300000000       6.183548004509331E-003
   115.655352000000        13.7708370500000       0.645207449868149     
   115.655061000000        13.8034441000000       5.791209835993201E-003
   115.655637500000        13.7382300000000       7.533297542957088E-003
   115.655982000000        13.7708370500000       0.786043929398594     
   115.655696500000        13.8034441000000       6.163181295226969E-003
   115.655405500000        13.8360511500000       0.593818651083706     
   115.656046000000        13.8360511500000       0.632955141501517     
   115.655755000000        13.8686582000000       1.677595655958360E-003
   115.655109000000        13.8686582000000       1.629165014573625E-003
   115.656262500000        13.7382300000000       9.111730366438817E-003
   115.656612500000        13.7708370500000       0.950741901205752     
   115.656332000000        13.8034441000000       6.705333684457863E-003
   115.656887500000        13.7382300000000       9.205404980822507E-003
   115.657243000000        13.7708370500000       0.960516356732053     
   115.656968000000        13.8034441000000       6.705333684457863E-003
   115.656687500000        13.8360511500000       0.687551243103088     
   115.657328500000        13.8360511500000       0.538169992509807     
   115.657048000000        13.8686582000000       1.535920453578847E-003
   115.656401500000        13.8686582000000       1.680192553288997E-003
   115.656110500000        13.9012652500000       0.169354404352846     
   115.656762500000        13.9012652500000       0.155052223360871     
   115.656471500000        13.9338723000000       4.712745092242020E-004
   115.657414000000        13.9012652500000       9.379516119402585E-002
   115.657128500000        13.9338723000000       3.293955643294561E-004
   115.656837500000        13.9664793500000       2.952419413647726E-002
   115.657500000000        13.9664793500000       3.269597252757308E-002
   115.657209000000        13.9990864000000       2.722329162920850E-004
   115.656175000000        13.9664793500000       5.020092189341022E-002
   115.656541000000        13.9990864000000       5.142170125238382E-004
   115.655459000000        13.9012652500000       0.164465273374328     
   115.655157000000        13.9338723000000       5.080560353158898E-004
   115.655814500000        13.9338723000000       5.072839136836221E-004
   115.655512500000        13.9664793500000       6.169962637706717E-002
   115.655873000000        13.9990864000000       6.320003926766061E-004
   115.655205000000        13.9990864000000       6.940486816134022E-004
   115.654892500000        14.0316934000000       7.584155823147683E-002
   115.655566000000        14.0316934000000       6.761075289403604E-002
   115.655253500000        14.0643004000000       7.896526335457941E-004
   115.656239000000        14.0316934000000       5.475658690790004E-002
   115.655932000000        14.0643004000000       7.029176978476351E-004
   115.655619500000        14.0969074500000       6.761085571865186E-002
   115.656303000000        14.0969074500000       5.475667087228472E-002
   115.655990500000        14.1295145000000       6.989219283143851E-004
   115.654935500000        14.0969074500000       7.584167452786225E-002
   115.655301500000        14.1295145000000       7.609683004507342E-004
   115.656912500000        14.0316934000000       3.291318652071441E-002
   115.656610500000        14.0643004000000       5.701184501150668E-004
   115.657585500000        14.0316934000000       1.060005013556681E-002
   115.657289000000        14.0643004000000       3.421830543118296E-004
   115.656987500000        14.0969074500000       3.450748157515349E-002
   115.657671000000        14.0969074500000       5.407814178700864E-003
   115.657369500000        14.1295145000000       3.645781983015362E-004
   115.656680000000        14.1295145000000       5.783472112100320E-004
   115.656367500000        14.1621215500000       5.466146608814831E-002
   115.657062500000        14.1621215500000       3.450748157515255E-002
   115.656750000000        14.1947286000000       5.440504442296573E-004
   115.657757000000        14.1621215500000       5.407814178700717E-003
   115.657450000000        14.1947286000000       3.444767016769471E-004
   115.657137500000        14.2273356500000       3.209250418185670E-002
   115.657842500000        14.2273356500000       4.029090608019895E-003
   115.657530000000        14.2599427000000       2.978948761267335E-004
   115.656432000000        14.2273356500000       5.068539594399021E-002
   115.656819500000        14.2599427000000       4.816898992894708E-004
   115.654978500000        14.1621215500000       7.202594140725110E-002
   115.655673000000        14.1621215500000       6.615323679471205E-002
   115.655350000000        14.1947286000000       6.895528972236767E-004
   115.656050000000        14.1947286000000       6.491992244068315E-004
   115.655726500000        14.2273356500000       6.048136731640748E-002
   115.656108500000        14.2599427000000       5.762401771751242E-004
   115.655021500000        14.2273356500000       6.424083052933166E-002
   115.655398000000        14.2599427000000       6.113943672652479E-004
   115.652200000000        14.0316934500000       7.929986197312032E-002
   115.652873500000        14.0316934500000       8.158108688517204E-002
   115.652539500000        14.0643005000000       8.494107441097275E-004
   115.653546500000        14.0316934500000       8.349083173915937E-002
   115.653218000000        14.0643005000000       8.680144475641011E-004
   115.652884000000        14.0969075000000       8.158096158644608E-002
   115.653567500000        14.0969075000000       8.349070371343704E-002
   115.653233500000        14.1295145000000       7.808667323577613E-004
   115.652200000000        14.0969075000000       7.929974037386266E-002
   115.652544500000        14.1295145000000       7.589224231611910E-004
   115.654219500000        14.0316934500000       8.113608406796304E-002
   115.653896500000        14.0643005000000       8.692947048399527E-004
   115.654575000000        14.0643004500000       8.435332014708573E-004
   115.654252000000        14.0969075000000       8.113595903302138E-002
   115.654612500000        14.1295145000000       7.825713634200049E-004
   115.653923000000        14.1295145000000       7.837071709273661E-004
   115.653589000000        14.1621215500000       7.390932375727816E-002
   115.654284000000        14.1621215500000       7.407067241749805E-002
   115.653950000000        14.1947286000000       6.831671271710453E-004
   115.654650000000        14.1947286000000       6.895528972236767E-004
   115.654316000000        14.2273356500000       6.364590673008394E-002
   115.654687500000        14.2599427000000       6.122554861024476E-004
   115.653610500000        14.2273356500000       6.083885505164390E-002
   115.653976500000        14.2599427000000       6.078351589606656E-004
   115.652200000000        14.1621215500000       7.012982398979591E-002
   115.652894500000        14.1621215500000       7.183228374417411E-002
   115.652550000000        14.1947286000000       6.050309908110039E-004
   115.653250000000        14.1947286000000       6.530366336084811E-004
   115.652905500000        14.2273356500000       5.636650299804960E-002
   115.653266000000        14.2599427000000       5.853774499627904E-004
   115.652200000000        14.2273356500000       5.351345300380911E-002
   115.652555500000        14.2599427000000       5.453886450537453E-004
   115.659306500000        14.2599427000000       2.708411005032542E-004
   115.659199500000        14.1947286000000       1.988412326553361E-004
   115.660663500000        14.2273356500000       6.212695451332523E-003
   115.659092500000        14.1295145000000       2.286212755616877E-004
   115.660535000000        14.1621215500000       4.657377190563564E-003
   115.658985000000        14.0643004000000       3.261898717165260E-004
   115.660406500000        14.0969074500000       7.837958928083456E-003
   115.658878500000        13.9990864000000       7.135520399690304E-004
   115.660278000000        14.0316934000000       1.742181668625870E-002
   115.661849500000        14.1295145000000       4.424837172463766E-004
   115.661699500000        14.0643004000000       6.238071947851117E-004
   115.663142500000        14.0969074500000       1.498385437718248E-002
   115.661549500000        13.9990864000000       1.165461834551017E-003
   115.662971000000        14.0316934000000       2.845551944241396E-002
   115.662149000000        14.2599427000000       5.034594501469054E-004
   115.661999000000        14.1947286000000       4.385384614246447E-004
   115.663484500000        14.2273356500000       1.155269802933068E-002
   115.663313500000        14.1621215500000       1.046654936022036E-002
   115.658771000000        13.9338723000000       1.614810108019292E-003
   115.660149500000        13.9664793500000       4.007176327800866E-002
   115.658664000000        13.8686582000000       3.719350200966821E-003
   115.660021000000        13.9012652500000       7.446528452834310E-002
   115.658557000000        13.8034441000000       2.097747203331066E-002
   115.659892500000        13.8360511500000       0.461371210857834     
   115.658450000000        13.7382300000000       3.682161992329003E-002
   115.659764000000        13.7708370500000       0.956706659200065     
   115.661250000000        13.8686582000000       2.952840794600655E-003
   115.661099500000        13.8034441000000       1.799096658218265E-002
   115.662457000000        13.8360511500000       0.384499337180781     
   115.660950000000        13.7382300000000       3.667553551964130E-002
   115.662285500000        13.7708370500000       0.889743588341035     
   115.661399500000        13.9338723000000       2.162895379739505E-003
   115.662799500000        13.9664793500000       5.365224818851813E-002
   115.662628500000        13.9012652500000       6.088238513916400E-002
   115.658527500000        14.7490483500000       9.936921580698900E-003
   115.660163000000        14.7816554000000       7.720858715103485E-004
   115.660056000000        14.7164413000000       6.701841289255303E-004
   115.661691500000        14.7490483500000       1.580382414991662E-002
   115.658442000000        14.6838342500000       8.238155909925115E-003
   115.659949000000        14.6512272000000       6.184464479828186E-004
   115.661563000000        14.6838342500000       1.391010152407669E-002
   115.658356000000        14.6186202000000       7.648163538456344E-003
   115.659841500000        14.5860132000000       5.917893512118293E-004
   115.661434500000        14.6186202000000       1.301014373056406E-002
   115.658270500000        14.5534061500000       7.493105919943477E-003
   115.659735000000        14.5207991000000       5.631889378510191E-004
   115.661306000000        14.5534061500000       1.262449599856718E-002
   115.663048500000        14.6512272000000       8.651276620447193E-004
   115.662898500000        14.5860132000000       8.244336974748726E-004
   115.664512500000        14.6186202000000       1.820543056071977E-002
   115.662749000000        14.5207991000000       7.888934556941768E-004
   115.664341500000        14.5534061500000       1.758746693552731E-002
   115.663348500000        14.7816554000000       1.029081673290118E-003
   115.663198500000        14.7164413000000       9.287537982946582E-004
   115.664855500000        14.7490483500000       2.107091549823322E-002
   115.664684000000        14.6838342500000       1.927077751789258E-002
   115.658185000000        14.4881920500000       7.098859141936011E-003
   115.659627500000        14.4555850000000       5.178627595050183E-004
   115.661177500000        14.4881920500000       1.218577689700866E-002
   115.658099500000        14.4229779500000       6.208845116621724E-003
   115.659521000000        14.3903709000000       4.527161560896249E-004
   115.661049000000        14.4229779500000       1.136722276570730E-002
   115.658014000000        14.3577638500000       4.825554100655488E-003
   115.659413500000        14.3251568000000       3.638466051976713E-004
   115.660920500000        14.3577638500000       1.008317432913650E-002
   115.657928000000        14.2925497500000       3.069737176915953E-003
   115.660792000000        14.2925497500000       8.224601248306528E-003
   115.662449000000        14.3903709000000       6.749336061013535E-004
   115.662299000000        14.3251568000000       5.896434287222348E-004
   115.663827500000        14.3577638500000       1.503256113263808E-002
   115.663656000000        14.2925497500000       1.332404687072819E-002
   115.662598500000        14.4555850000000       7.423780435422522E-004
   115.664170000000        14.4881920500000       1.706939470712409E-002
   115.663998500000        14.4229779500000       1.629541649427674E-002
   115.652200000000        14.2925497500000       4.734763280792025E-002
   115.652916000000        14.2925497500000       5.002395225747963E-002
   115.652560500000        14.3251568000000       5.152662615112607E-004
   115.653632000000        14.2925497500000       5.376741652391107E-002
   115.653282000000        14.3251568000000       5.431857739316650E-004
   115.652926500000        14.3577638500000       4.660558388660508E-002
   115.653653500000        14.3577638500000       4.906284379023763E-002
   115.653298000000        14.3903709000000       4.999045043768955E-004
   115.652200000000        14.3577638500000       4.444369196670258E-002
   115.652566000000        14.3903709000000       4.744146855112885E-004
   115.654348000000        14.2925497500000       5.575165627620474E-002
   115.654003500000        14.3251568000000       5.495771700820544E-004
   115.655064000000        14.2925497500000       5.615710095112617E-002
   115.654724500000        14.3251568000000       5.495771700820544E-004
   115.654380000000        14.3577638500000       4.970899423339891E-002
   115.655106500000        14.3577638500000       4.924549347892054E-002
   115.654762000000        14.3903709000000       5.018155200709048E-004
   115.654030000000        14.3903709000000       5.018155200709048E-004
   115.653675000000        14.4229779500000       4.453664507375523E-002
   115.654412000000        14.4229779500000       4.470690088425144E-002
   115.654057000000        14.4555850000000       4.780463053163500E-004
   115.655149500000        14.4229779500000       4.396899554621637E-002
   115.654799500000        14.4555850000000       4.771591515750832E-004
   115.654444000000        14.4881920500000       4.208968769392256E-002
   115.655192500000        14.4881920500000       4.095284318871018E-002
   115.654837000000        14.5207991000000       4.866374097108060E-004
   115.653696500000        14.4881920500000       4.269781942442687E-002
   115.654083500000        14.5207991000000       4.930138782834099E-004
   115.652200000000        14.4229779500000       4.005777613690059E-002
   115.652937500000        14.4229779500000       4.226574751632702E-002
   115.652571500000        14.4555850000000       4.546151964307675E-004
   115.653314500000        14.4555850000000       4.786905725725600E-004
   115.652948000000        14.4881920500000       4.105870926398524E-002
   115.653330000000        14.5207991000000       4.936686111878410E-004
   115.652200000000        14.4881920500000       3.908548298824267E-002
   115.652576500000        14.5207991000000       4.740877772203074E-004
   115.655780000000        14.2925497500000       5.285372351846627E-002
   115.655446000000        14.3251568000000       5.452078394475315E-004
   115.656496000000        14.2925497500000       4.418141826801846E-002
   115.656167500000        14.3251568000000       5.062579778929801E-004
   115.655833500000        14.3577638500000       4.579080346646962E-002
   115.656560000000        14.3577638500000       3.780403428859883E-002
   115.656226000000        14.3903709000000       4.563515245220212E-004
   115.655494000000        14.3903709000000       4.935328056860545E-004
   115.657212500000        14.2925497500000       2.736191420934109E-002
   115.656889000000        14.3251568000000       4.185367828878616E-004
   115.657610500000        14.3251568000000       2.488170870019816E-004
   115.657287000000        14.3577638500000       2.250539922332220E-002
   115.657690500000        14.3903709000000       2.139649251995250E-004
   115.656958000000        14.3903709000000       3.733860002032704E-004
   115.656624500000        14.4229779500000       3.326508750147745E-002
   115.657361500000        14.4229779500000       1.903620635227242E-002
   115.657028000000        14.4555850000000       3.473123766968646E-004
   115.657770500000        14.4555850000000       1.894145600786980E-004
   115.657436500000        14.4881920500000       1.662517931539943E-002
   115.657851000000        14.5207991000000       1.762286423286677E-004
   115.656689000000        14.4881920500000       3.052516842608432E-002
   115.657097500000        14.5207991000000       3.373511866597232E-004
   115.655887000000        14.4229779500000       4.065650841266072E-002
   115.655542500000        14.4555850000000       4.665855370957325E-004
   115.656285500000        14.4555850000000       4.289799150656748E-004
   115.655940500000        14.4881920500000       3.765215116812934E-002
   115.656344000000        14.5207991000000       4.251294268825392E-004
   115.655590500000        14.5207991000000       4.693916226659118E-004
   115.655235500000        14.5534061500000       4.184393106015678E-002
   115.655994000000        14.5534061500000       3.734073559333548E-002
   115.655639000000        14.5860132000000       4.902123372105987E-004
   115.656753000000        14.5534061500000       2.926450435793117E-002
   115.656403000000        14.5860132000000       4.374561975582880E-004
   115.656047500000        14.6186202000000       3.897906471473369E-002
   115.656817000000        14.6186202000000       3.060841083145165E-002
   115.656461500000        14.6512272000000       4.632251537577416E-004
   115.655278500000        14.6186202000000       4.357001558708192E-002
   115.655687000000        14.6512272000000       5.171157226034822E-004
   115.657511500000        14.5534061500000       1.524217493888373E-002
   115.657167000000        14.5860132000000       3.428410506762398E-004
   115.657931000000        14.5860132000000       1.752738152735943E-004
   115.657586500000        14.6186202000000       1.574171946780988E-002
   115.658011500000        14.6512272000000       1.870737038005934E-004
   115.657236500000        14.6512272000000       3.637486884908187E-004
   115.656881500000        14.6838342500000       3.274575623290808E-002
   115.657661500000        14.6838342500000       1.675789441170335E-002
   115.657306500000        14.7164413000000       3.941694491554603E-004
   115.658092000000        14.7164413000000       2.019762029533964E-004
   115.657736500000        14.7490483500000       1.675789441170335E-002
   115.658172000000        14.7816554000000       2.037489711454664E-004
   115.656946000000        14.7490483500000       3.430990810860021E-002
   115.657376000000        14.7816554000000       4.187847981204703E-004
   115.655321000000        14.6838342500000       4.607199844519098E-002
   115.656101000000        14.6838342500000       4.153744521843750E-002
   115.655735000000        14.7164413000000       5.552876336161985E-004
   115.656521000000        14.7164413000000       5.006343835022896E-004
   115.656155000000        14.7490483500000       4.405220802792911E-002
   115.656580000000        14.7816554000000       5.376988345858998E-004
   115.655363500000        14.7490483500000       4.891487104865159E-002
   115.655783500000        14.7816554000000       5.978023732809383E-004
   115.652200000000        14.5534061500000       4.228889346491104E-002
   115.652958500000        14.5534061500000       4.404782898612200E-002
   115.652582000000        14.5860132000000       5.160316690230053E-004
   115.653717500000        14.5534061500000       4.516665565247482E-002
   115.653346000000        14.5860132000000       5.291389918675759E-004
   115.652969500000        14.6186202500000       4.578362256367517E-002
   115.653739000000        14.6186202500000       4.686410380105555E-002
   115.653362500000        14.6512273000000       5.569298415425394E-004
   115.652200000000        14.6186202500000       4.407762691158770E-002
   115.652587500000        14.6512273000000       5.440894987784979E-004
   115.654476500000        14.5534061500000       4.394206644349986E-002
   115.654110500000        14.5860132000000       5.298315821693155E-004
   115.654875000000        14.5860132000000       5.147925749918981E-004
   115.654509000000        14.6186202000000       4.566179188117141E-002
   115.654912500000        14.6512272000000       5.426424455965673E-004
   115.654137500000        14.6512272500000       5.569298461787921E-004
   115.653760500000        14.6838343000000       4.858765822590159E-002
   115.654541000000        14.6838342500000       4.783652810912448E-002
   115.654164000000        14.7164413000000       5.856088782327106E-004
   115.654949500000        14.7164413000000       5.758213338099602E-004
   115.654573000000        14.7490483500000       5.059167830120871E-002
   115.654987000000        14.7816554000000       6.175193873606520E-004
   115.653782000000        14.7490483500000       5.091720680744636E-002
   115.654191000000        14.7816554000000       6.214928108013046E-004
   115.652200000000        14.6838343500000       4.542064778877470E-002
   115.652980500000        14.6838343000000       4.720410844674258E-002
   115.652593000000        14.7164413500000       5.689334960568512E-004
   115.653378500000        14.7164413000000       5.848638287817703E-004
   115.652991000000        14.7490483500000       4.925713768865253E-002
   115.653394500000        14.7816554000000       6.222735806510457E-004
   115.652200000000        14.7490484000000       4.748410004132576E-002
   115.652598000000        14.7816554000000       6.012301195539990E-004
   115.652200000000        14.8182717500000       5.630923253476020E-002
   115.653002000000        14.8182717000000       5.810426254480527E-002
   115.652604000000        14.8548880500000       6.410839416575962E-004
   115.653805000000        14.8182717000000       5.983148091199765E-002
   115.653412500000        14.8548880000000       6.609578993331197E-004
   115.653014000000        14.8915043500000       5.997418217764380E-002
   115.653829000000        14.8915043500000       6.090045636821820E-002
   115.653430500000        14.9281207000000       6.827451670280707E-004
   115.652200000000        14.8915044000000       5.864563817523367E-002
   115.652610000000        14.9281207000000       6.715419303903832E-004
   115.654607000000        14.8182717000000       5.939600191670022E-002
   115.654221000000        14.8548880000000       6.601408932675399E-004
   115.655409000000        14.8182717000000       5.701826667246465E-002
   115.655029000000        14.8548880000000       6.553360627687424E-004
   115.654643000000        14.8915043500000       5.962764497177769E-002
   115.655457000000        14.8915043500000       5.701834453156130E-002
   115.655071000000        14.9281207000000       6.676616179448687E-004
   115.654251000000        14.9281207000000       6.819135651214901E-004
   115.653853000000        14.9647370000000       6.090037320803379E-002
   115.654679000000        14.9647370000000       5.962756354964095E-002
   115.654281000000        15.0013533000000       6.698783411557315E-004
   115.655505500000        14.9647370000000       5.620371379136069E-002
   115.655113500000        15.0013533000000       6.421922310211197E-004
   115.654715000000        15.0379696000000       5.645787810314810E-002
   115.655554000000        15.0379696000000       5.165107040559636E-002
   115.655155500000        15.0745859000000       5.666926216403346E-004
   115.653877000000        15.0379696000000       5.896266254901626E-002
   115.654311000000        15.0745859000000       6.068325262823949E-004
   115.652200000000        14.9647370000000       5.864563817523510E-002
   115.653026000000        14.9647370000000       5.997410028228949E-002
   115.652616000000        15.0013533000000       6.724660971719716E-004
   115.653448500000        15.0013533000000       6.732743496905678E-004
   115.653038000000        15.0379696000000       5.919043433743974E-002
   115.653466500000        15.0745859000000       6.198768926283508E-004
   115.652200000000        15.0379696000000       5.845029535190106E-002
   115.652622000000        15.0745859000000       6.191433104983351E-004
   115.656212000000        14.8182717000000       5.063044803812076E-002
   115.655837500000        14.8548880000000       6.298802422662382E-004
   115.657014000000        14.8182717000000       3.852853571484472E-002
   115.656646000000        14.8548880000000       5.586226391511239E-004
   115.656272000000        14.8915043500000       5.063051717456114E-002
   115.657086000000        14.8915043500000       3.818940398483259E-002
   115.656712000000        14.9281207000000       5.434357152092044E-004
   115.655891500000        14.9281207000000       6.300914987825815E-004
   115.657816000000        14.8182717000000       1.874507125637859E-002
   115.657454000000        14.8548880000000       4.213558083549282E-004
   115.658618500000        14.8182717000000       1.444570320543663E-002
   115.658262500000        14.8548880000000       1.831901306500243E-004
   115.657900000000        14.8915043500000       1.658283894467758E-002
   115.658715000000        14.8915043500000       1.891676563131264E-002
   115.658352500000        14.9281207000000       2.120726292885183E-004
   115.657532000000        14.9281207000000       3.870526006703597E-004
   115.657158000000        14.9647370000000       3.456692924763687E-002
   115.657984500000        14.9647370000000       1.186166952515158E-002
   115.657610500000        15.0013533000000       3.126393127916633E-004
   115.658811000000        14.9647370000000       2.413143432758359E-002
   115.658443000000        15.0013533000000       2.741584500591714E-004
   115.658069000000        15.0379696000000       5.163967847149661E-003
   115.658907000000        15.0379696000000       2.911766207075551E-002
   115.658533000000        15.0745859000000       3.355784947169760E-004
   115.657230000000        15.0379696000000       2.748547515428658E-002
   115.657688500000        15.0745859000000       2.161518309993233E-004
   115.656332000000        14.9647370000000       4.853319965199360E-002