 TITLE = "Edge Error"
 VARIABLES = "X", "Y","Estimate1" 
 ZONE T = "Domain", I=       17476  DATAPACKING=POINT, ZONETYPE=ORDERED
   115.652825000000        13.7382300000000       4.184143975190046E-003
   115.652200000000        13.8034441000000        1.71690518911962     
   115.653471500000        13.8034441000000       0.763337114705367     
   115.652846500000        13.8686582000000       1.702054010971937E-002
   115.654075000000        13.7382300000000       2.950177918319999E-003
   115.654743000000        13.8034441000000       0.307829183369813     
   115.654139500000        13.8686582000000       7.567342305408723E-003
   115.653514500000        13.9338723000000        3.07855754941833     
   115.654828500000        13.9338723000000       0.232039459408604     
   115.654203500000        13.9990864000000       3.151062504207094E-002
   115.652200000000        13.9338723000000        6.10985242551790     
   115.652868000000        13.9990864000000       6.258434020056727E-002
   115.655325000000        13.7382300000000       2.950177918319999E-003
   115.656014000000        13.8034441000000       0.157190042630086     
   115.655432000000        13.8686582000000       9.546945161609004E-004
   115.656575000000        13.7382300000000       1.506479876803513E-003
   115.657285500000        13.8034441000000       0.127701061470648     
   115.656724500000        13.8686582000000       6.583172245200404E-004
   115.656142500000        13.9338723000000       0.418727308293185     
   115.657457000000        13.9338723000000        1.15637647481562     
   115.656875000000        13.9990864000000       1.184496624974246E-002
   115.655539000000        13.9990864000000       4.289098601836688E-003
   115.654914000000        14.0643004500000       0.506545811148109     
   115.656271000000        14.0643004500000        1.09302269397697     
   115.655646000000        14.1295145000000       1.154800650312045E-002
   115.657628500000        14.0643004500000        4.42026369207179     
   115.657024500000        14.1295145000000       4.673485539210927E-002
   115.656399500000        14.1947286000000        1.09302354025951     
   115.657799500000        14.1947286000000        4.42026708110835     
   115.657174500000        14.2599427000000       1.702584292087815E-002
   115.655000000000        14.1947286000000       0.536361501126391     
   115.655753500000        14.2599427000000       8.566648262683916E-003
   115.652200000000        14.0643004500000        6.10984774106141     
   115.653557000000        14.0643004500000        3.07855518138088     
   115.652889000000        14.1295145000000       1.596902792038369E-002
   115.654267500000        14.1295145000000       1.058068599322931E-002
   115.653599500000        14.1947286000000        1.00073959670776     
   115.654332000000        14.2599427000000       5.847706928454531E-003
   115.652200000000        14.1947286000000        1.51147428693870     
   115.652910500000        14.2599427000000       4.299684432321487E-003
   115.659306500000        14.2599427000000       5.076054131360304E-002
   115.659092500000        14.1295145000000       0.163824209923856     
   115.660599500000        14.1947286000000        7.75021338306875     
   115.658878500000        13.9990864000000       4.249634985175697E-002
   115.660342500000        14.0643004500000        7.75020744096183     
   115.661849500000        14.1295145000000       0.163824209923856     
   115.661549500000        13.9990864000000       4.249634985198307E-002
   115.663056500000        14.0643004500000        4.81391006754018     
   115.662149000000        14.2599427000000       5.074268674381529E-002
   115.663399000000        14.1947286000000        4.81391366144817     
   115.658664000000        13.8686582000000       1.270505644363093E-003
   115.660085500000        13.9338723000000        2.07515281836097     
   115.658450000000        13.7382300000000       2.631971638513467E-003
   115.659828500000        13.8034441000000       0.137313595871543     
   115.661250000000        13.8686582000000       1.425098412293912E-003
   115.660950000000        13.7382300000000       2.631971638513467E-003
   115.662371500000        13.8034441000000       0.132722018219472     
   115.662714000000        13.9338723000000        1.36273112648383     
   115.658484500000        14.7164413000000       5.986799911029697E-002
   115.660163000000        14.7816554000000       1.371031240621971E-003
   115.659949000000        14.6512272000000       1.422933366686279E-003
   115.661627500000        14.7164413000000       5.304255905253676E-002
   115.658313500000        14.5860131500000       5.986795320925955E-002
   115.659735000000        14.5207991000000       7.208266613476901E-004
   115.661370500000        14.5860131500000       5.304251838467989E-002
   115.663048500000        14.6512272000000       1.260299317134827E-003
   115.662749000000        14.5207991000000       6.364848899626541E-004
   115.664427000000        14.5860131500000       4.498124802942086E-002
   115.663348500000        14.7816554000000       1.215199955594299E-003
   115.664769500000        14.7164413000000       4.498128342219539E-002
   115.658142500000        14.4555850000000       0.194020180233402     
   115.659521000000        14.3903709000000       4.355581074331811E-003
   115.661113500000        14.4555850000000       0.184415899261939     
   115.657971000000        14.3251568000000        1.56273889977559     
   115.660856500000        14.3251568000000        2.32874389276001     
   115.662449000000        14.3903709000000       4.139969000544148E-003
   115.663741500000        14.3251568000000        1.44426592443257     
   115.664084500000        14.4555850000000       0.129080812054009     
   115.652200000000        14.3251568000000       0.310775267442787     
   115.653642500000        14.3251568000000       0.394651746340377     
   115.652932000000        14.3903709000000       1.396624221311628E-003
   115.655085500000        14.3251568000000       0.536361498430642     
   115.654396000000        14.3903709000000       1.788494957078972E-003
   115.653685500000        14.4555850000000       0.124425678387994     
   115.655171000000        14.4555850000000       0.159337587889264     
   115.654460500000        14.5207991000000       3.615053677868714E-004
   115.652200000000        14.4555850000000       0.108121237464913     
   115.652953500000        14.5207991000000       2.973144028991522E-004
   115.656528000000        14.3251568000000       0.786300528499907     
   115.655860000000        14.3903709000000       2.220725419512475E-003
   115.657324500000        14.3903709000000       2.222242308456402E-003
   115.656656500000        14.4555850000000       0.197845191823658     
   115.657474500000        14.5207991000000       4.242583702076355E-004
   115.655967500000        14.5207991000000       4.242583702116363E-004
   115.655257000000        14.5860131500000       5.997217654788457E-002
   115.656785000000        14.5860131500000       6.856516470965178E-002
   115.656074500000        14.6512272000000       8.142983681443348E-004
   115.657624000000        14.6512272000000       8.148240610931158E-004
   115.656913500000        14.7164413000000       6.856521779684240E-002
   115.657774000000        14.7816554000000       7.856587414578070E-004
   115.655342500000        14.7164413000000       5.997222222746885E-002
   115.656181500000        14.7816554000000       7.861522456911443E-004
   115.652200000000        14.5860132000000       3.318859038575511E-002
   115.653728500000        14.5860132000000       4.288849077142490E-002
   115.652975000000        14.6512273000000       5.096839263544972E-004
   115.654525000000        14.6512272500000       7.127057254929432E-004
   115.653771500000        14.7164413500000       4.288845788859234E-002
   115.654589000000        14.7816554000000       6.766506315305124E-004
   115.652200000000        14.7164413500000       3.318856493988468E-002
   115.652996500000        14.7816554000000       4.623491287402693E-004
   115.652200000000        14.8548880500000       4.455172469681400E-002
   115.653817000000        14.8548880500000       5.461350257501781E-002
   115.653020500000        14.9281207000000       6.118906861435839E-004
   115.655433000000        14.8548880500000       7.085349368328776E-002
   115.654661000000        14.9281207000000       7.933599608919456E-004
   115.653865000000        15.0013533000000       5.461346528734939E-002
   115.655529500000        15.0013533000000       7.085344562641920E-002
   115.654733500000        15.0745859000000       3.585727331342076E-004
   115.652200000000        15.0013533000000       4.455169427887636E-002
   115.653044500000        15.0745859000000       2.791639301362334E-004
   115.657050000000        14.8548880500000       7.228128070373789E-002
   115.656301500000        14.9281207000000       8.092338473053164E-004
   115.658666500000        14.8548880500000       6.302846086224125E-002
   115.657942500000        14.9281207000000       8.092338472983086E-004
   115.657194000000        15.0013533000000       7.222708993054761E-002
   115.658859000000        15.0013533000000       5.266963606624291E-002
   115.658110500000        15.0745859000000       3.495991306495200E-004
   115.656422000000        15.0745859000000       3.583604342992585E-004
   115.655674000000        15.2210511500000       6.218881738651539E-002
   115.657409500000        15.2201589500000       6.026315743345710E-002
   115.656661500000        15.3666242000000       2.271549845281665E-004
   115.659147500000        15.2210511500000       4.534822130405763E-002
   115.658446500000        15.3666242000000       2.274097281654798E-004
   115.657555000000        15.3675164000000       1.324007219493219E-004
   115.652200000000        15.2210511500000       4.031273444717472E-002
   115.653936500000        15.2201589500000       4.812166598341667E-002
   115.653092000000        15.3666242000000       1.963134519480976E-004
   115.654877000000        15.3666242000000       1.964234992749336E-004
   115.653985000000        15.3675164000000       1.324007219498489E-004
   115.660644000000        15.0745859000000       5.229436991312895E-004
   115.662618000000        15.2192673500000       3.633434994005254E-002
   115.661121500000        15.3657326000000       3.069141981541790E-004
   115.664021500000        15.0745859000000       4.240379872140951E-004
   115.666095000000        15.2210511500000       2.634585373359986E-002
   115.664691500000        15.3657326000000       3.075169861890024E-004
   115.662910000000        15.3675164000000       1.600205497782506E-004
   115.660403500000        14.9281207000000       1.179863390435815E-003
   115.662188500000        15.0013533000000       4.059942545430126E-002
   115.661900000000        14.8548880500000       5.588225122211446E-002
   115.663685000000        14.9281207000000       9.097523162533369E-004
   115.665133500000        14.8548880500000       4.887705942727529E-002
   115.665518000000        15.0013533000000       2.966624327956597E-002
   115.659917000000        15.8069122500000       1.903964399729912E-002
   115.664064000000        15.9533775000000       5.141269161710189E-004
   115.663487000000        15.6604470000000       3.315077983053522E-004
   115.667634000000        15.8069122500000       1.606888595418410E-002
   115.659532500000        15.5139817000000       1.290654733318091E-002
   115.666864500000        15.5139817000000       1.282536855258221E-002
   115.652200000000        15.5139816500000       1.341670568579345E-002
   115.655866000000        15.5139817000000       1.280570706332745E-002
   115.654081000000        15.6604469500000       1.723058773596688E-004
   115.657843500000        15.6604470000000       1.657979591998734E-004
   115.656058500000        15.8069122500000       2.365761938268859E-002
   115.658132000000        15.9533775000000       3.193324243675339E-004
   115.652200000000        15.8069122000000       2.673278992457683E-002
   115.654177500000        15.9533775000000       3.609325353917621E-004
   115.652200000000        16.1174467500000       2.994585607193562E-002
   115.656262500000        16.1174467500000       2.650108376969431E-002
   115.654285000000        16.2815160000000       3.112851872059483E-004
   115.660324500000        16.1174468000000       2.132806978757224E-002
   115.658455000000        16.2815160500000       2.619179178017915E-004
   115.656478000000        16.4455853000000       2.061040706424072E-002
   115.660755500000        16.4455854000000       1.451467806867478E-002
   115.658778500000        16.6096546500000       2.027551258676987E-004
   115.652200000000        16.4455852500000       2.449512095969554E-002
   115.654393000000        16.6096545500000       2.544958729443130E-004
   115.665357000000        16.6096547000000       2.200117507997187E-004
   115.664710500000        16.2815161000000       3.689502708262050E-004
   115.669312000000        16.4455854000000       1.066160398408346E-002
   115.668450000000        16.1174468000000       1.800024824117367E-002
   115.661617500000        17.1018625000000       2.034943656690931E-002
   115.666650000000        17.2659318000000       9.369504767639713E-004
   115.666003500000        16.9377932000000       2.291372258487663E-004
   115.671036000000        17.1018625000000       3.191308683183668E-002
   115.661186500000        16.7737239500000       8.230094410026180E-003
   115.670174000000        16.7737239500000       8.170053788482800E-003
   115.652200000000        16.7737237500000       1.904010350711905E-002
   115.656693500000        16.7737239000000       1.517258777853000E-002
   115.654500500000        16.9377931000000       2.492965513081944E-004
   115.659101500000        16.9377932000000       1.881073277400028E-004
   115.656909000000        17.1018625000000       1.341562454843203E-002
   115.659425000000        17.2659318000000       2.986628271379063E-004
   115.652200000000        17.1018624000000       1.777958511475342E-002
   115.654608500000        17.2659318000000       2.208435120868494E-004
   115.652200000000        17.4501139000000       2.736274007517040E-002
   115.657138000000        17.4501141500000       3.897136390006709E-002
   115.654729500000        17.6342962500000       5.352198198900404E-004
   115.662075000000        17.4501142500000       7.047445663393961E-002
   115.659788000000        17.6342966000000       9.676804012621656E-004
   115.657379500000        17.8184788000000       8.325584051310386E-002
   115.662559000000        17.8184791500000       0.113420782482902     
   115.660150500000        18.0026613500000       1.632194195572145E-003
   115.652200000000        17.8184783000000       6.956859086313638E-002
   115.654850000000        18.0026608500000       1.197878032382123E-003
   115.668101500000        18.0026616000000       3.881811402890777E-003
   115.667375500000        17.6342967000000       2.492287412162375E-003
   115.672918000000        17.8184791500000       0.134886143419835     
   115.671950500000        17.4501142500000       9.074571183803741E-002
   115.663648000000        18.6473001000000       8.150680188835992E-002
   115.669553000000        18.7393913000000       6.574085723669946E-003
   115.669190000000        18.5552089000000       5.304239334653810E-003
   115.675095000000        18.6473001000000       0.104671081178626     
   115.663406000000        18.4631176500000       6.676189270133838E-002
   115.668827500000        18.3710264000000       4.283373882645684E-003
   115.674611500000        18.4631176500000       8.625740954209332E-002
   115.663043000000        18.1868440000000       0.120208454922620     
   115.673886000000        18.1868440000000       0.142340966304967     
   115.652200000000        18.1868429000000       7.669145811687932E-002
   115.657621000000        18.1868436500000       9.198673116588754E-002
   115.654971000000        18.3710257000000       1.383926876922116E-003
   115.660513500000        18.3710263000000       1.808845174448273E-003
   115.657923500000        18.6473000500000       3.943621956623974E-002
   115.660876500000        18.7393913000000       2.560051568000550E-003
   115.660695000000        18.5552088500000       2.053067115036174E-003
   115.657802500000        18.4631175000000       4.599337806874828E-002
   115.652200000000        18.6472994000000       2.618014044813841E-002
   115.655092000000        18.7393913000000       1.238440377063076E-003
   115.655031500000        18.5552081500000       1.189701568113190E-003
   115.652200000000        18.4631163500000       3.834572905844040E-002
   115.652200000000        19.0491827500000       6.659135467463782E-002
   115.655228000000        19.1524475000000       2.506677259753131E-003
   115.655160000000        18.9459190000000       1.711732838959847E-003
   115.658188000000        19.0491837500000       8.548545258144406E-002
   115.652200000000        18.8426548500000       3.872230291710145E-002
   115.658052000000        18.8426554500000       5.971644301860415E-002
   115.661283500000        19.1524479000000       3.662616282464224E-003
   115.661080000000        18.9459196000000       3.086625622699930E-003
   115.664175500000        19.0491837500000       0.124927261036829     
   115.663904500000        18.8426554500000       0.107681772194365     
   115.658459000000        19.4622403000000       0.130985585202733     
   115.661690500000        19.5655044500000       4.147253855631876E-003
   115.661486500000        19.3589762000000       4.078543490309412E-003
   115.664718000000        19.4622403500000       0.136058049434866     
   115.658323500000        19.2557120500000       0.113435888800433     
   115.664446500000        19.2557120500000       0.136058048568836     
   115.652200000000        19.4622401000000       0.126152949103286     
   115.655363500000        19.5655044000000       4.012747982575955E-003
   115.655295500000        19.3589760000000       3.400412626238008E-003
   115.652200000000        19.2557114500000       0.100360570184238     
   115.671180500000        19.5655045000000       8.293852225188284E-003
   115.670773500000        19.3589762000000       8.442997563591967E-003
   115.677236000000        19.4622403500000       0.140815952380234     
   115.670366500000        19.1524479000000       8.262461279126540E-003
   115.676693500000        19.2557120500000       0.140899841442647     
   115.669960000000        18.9459196000000       7.554926063697556E-003
   115.676151000000        19.0491837500000       0.140899839650603     
   115.675608500000        18.8426554500000       0.131783059917689     
   115.665803000000        20.2883536000000       9.166568390638298E-002
   115.672808000000        20.3916178000000       4.790852691817853E-003
   115.672401000000        20.1850894000000       5.977639686244917E-003
   115.679406000000        20.2883536000000       8.749478076013284E-002
   115.665531500000        20.0818252500000       0.109813099923927     
   115.671994000000        19.9785611000000       7.016435128172194E-003
   115.678863500000        20.0818252500000       0.103736224600628     
   115.665260500000        19.8752969500000       0.125041630267118     
   115.671587500000        19.7720328000000       7.825376376309836E-003
   115.678321000000        19.8752969500000       0.118417006141260     
   115.664989500000        19.6687686500000       0.135376327760715     
   115.677778500000        19.6687686500000       0.131654844410919     
   115.652200000000        19.8752973500000       0.131746322420495     
   115.655499000000        19.9785614000000       3.797148085143960E-003
   115.655431000000        19.7720329000000       4.122161887867160E-003
   115.658730000000        19.8752969500000       0.130922335227503     
   115.652200000000        19.6687687000000       0.131746258629691     
   115.658594500000        19.6687686000000       0.130985711631806     
   115.662097000000        19.9785611000000       3.732528702477393E-003
   115.661893500000        19.7720328000000       4.097021420875483E-003
   115.659001500000        20.2883536000000       9.513389626842779E-002
   115.662504000000        20.3916178000000       2.517863943342385E-003
   115.662300500000        20.1850894000000       3.101444579691246E-003
   115.658866000000        20.0818252500000       0.116834339915240     
   115.652200000000        20.2883541000000       9.548974278087481E-002
   115.655634500000        20.3916178000000       2.564401198565082E-003
   115.655567000000        20.1850899000000       3.113523604990736E-003
   115.652200000000        20.0818260500000       0.118857237721798     
   115.652200000000        20.7392788000000       5.777415696574412E-002
   115.655787000000        20.8551649000000       7.753275449213531E-004
   115.655711000000        20.6233916500000       1.755078834790283E-003
   115.659298000000        20.7392777500000       5.792943545775461E-002
   115.652200000000        20.5075050000000       8.652824998630654E-002
   115.659145500000        20.5075044500000       8.494523468001437E-002
   115.662961000000        20.8551642000000       1.186838185214054E-003
   115.662732500000        20.6233910000000       1.776355773337717E-003
   115.666395500000        20.7392774500000       5.864005705792264E-002
   115.666091000000        20.5075043500000       8.082630187546323E-002
   115.659602000000        21.2028243500000       4.566943839649801E-002
   115.663417000000        21.3187106000000       1.880641759642432E-003
   115.663189000000        21.0869374000000       1.237189677298249E-003
   115.667004000000        21.2028236500000       5.828865245595404E-002
   115.659450000000        20.9710510500000       2.600886445906924E-002
   115.666700000000        20.9710505500000       3.914107732577938E-002
   115.652200000000        21.2028251500000       4.126098865148833E-002
   115.655939000000        21.3187113500000       1.473491503913852E-003
   115.655863000000        21.0869381500000       8.221003087507382E-004
   115.652200000000        20.9710520000000       2.156077613298154E-002
   115.674634500000        21.3187102000000       4.276983523683701E-003
   115.674178000000        21.0869371000000       3.048120109159179E-003
   115.681808500000        21.2028236500000       6.627620190684350E-002
   115.673721500000        20.8551640000000       2.851260818737814E-003
   115.681199500000        20.9710505500000       4.821694551281239E-002
   115.673264500000        20.6233909000000       3.552964551329063E-003
   115.680590500000        20.7392774500000       5.817948715755818E-002
   115.679981500000        20.5075043500000       7.756241766700318E-002
   115.668222000000        22.1299161500000       0.113826843455602     
   115.676461000000        22.2458027000000       8.710587849864381E-003
   115.676004500000        22.0140296000000       8.834320742854776E-003
   115.684243500000        22.1299161500000       0.129029237711897     
   115.667917500000        21.8981430500000       0.113826844100820     
   115.675547500000        21.7822565000000       8.028924384166020E-003
   115.683634500000        21.8981430500000       0.129029237711899     
   115.667613000000        21.6663699500000       0.109834429559801     
   115.675091000000        21.5504834000000       6.224161675492351E-003
   115.683025500000        21.6663699500000       0.119556384071669     
   115.667308500000        21.4345968000000       8.771027775846602E-002
   115.682417000000        21.4345968000000       9.453465481097176E-002
   115.652200000000        21.6663715000000       8.412009569652808E-002
   115.656091500000        21.7822574500000       3.075634826588255E-003
   115.656015000000        21.5504844000000       2.477175551639032E-003
   115.659906500000        21.6663703500000       9.159051117489239E-002
   115.652200000000        21.4345983000000       7.067276969451530E-002
   115.659754000000        21.4345974500000       7.524800523565740E-002
   115.663874000000        21.7822566500000       3.687791189940256E-003
   115.663645500000        21.5504836500000       2.887808217186613E-003
   115.660211000000        22.1299162500000       8.765686794376182E-002
   115.664330500000        22.2458027000000       3.634806703653377E-003
   115.664102500000        22.0140297000000       3.896980392362102E-003
   115.660059000000        21.8981433000000       9.159055043221420E-002
   115.652200000000        22.1299169500000       7.653374346617868E-002
   115.656243500000        22.2458027000000       2.438495721705580E-003
   115.656167500000        22.0140305000000       3.001028629244586E-003
   115.652200000000        21.8981446500000       8.412005940238636E-002
   115.652200000000        22.6357705500000       3.428910265129190E-002
   115.656414000000        22.7657586500000       1.560668030110910E-003
   115.656329000000        22.5057811000000       1.765497990623971E-003
   115.660543000000        22.6357692000000       5.558125719786650E-002
   115.652200000000        22.3757922500000       6.158582880789308E-002
   115.660372500000        22.3757915500000       7.839181975065247E-002
   115.664842500000        22.7657578000000       3.250453487459212E-003
   115.664586500000        22.5057803000000       3.288895745112316E-003
   115.668886000000        22.6357689000000       0.103553264414719     
   115.668544500000        22.3757914500000       0.116850349038500     
   115.660884500000        23.1557245500000       9.503960277027569E-002
   115.665355000000        23.2857130000000       4.722106289986697E-003
   115.665098500000        23.0257354000000       3.760885967184891E-003
   115.669569000000        23.1557238500000       0.139982034793164     
   115.660713500000        22.8957468500000       6.318019885123770E-002
   115.669227500000        22.8957463500000       0.113704683128834     
   115.652200000000        23.1557254500000       7.432517788210939E-002
   115.656585000000        23.2857138000000       3.206033207713579E-003
   115.656499500000        23.0257362000000       2.089742374341443E-003
   115.652200000000        22.8957480000000       4.096643350647243E-002
   115.678510000000        23.2857125500000       1.083316293086593E-002
   115.677997500000        23.0257351000000       9.283188712802050E-003
   115.686938500000        23.1557238000000       0.160569398614235     
   115.677485500000        22.7657576000000       8.368607075081193E-003
   115.686255500000        22.8957463500000       0.140323770113563     
   115.676973000000        22.5057802000000       8.330409076323557E-003
   115.685572500000        22.6357689000000       0.131128939597859     
   115.684889500000        22.3757914500000       0.140012654112657     
   115.670935000000        24.1956336500000       0.183395191630944     
   115.680558500000        24.3256224000000       1.255152053342365E-002
   115.680046000000        24.0656449000000       1.309553862004669E-002
   115.689669500000        24.1956336500000       0.179746853505075     
   115.670593500000        23.9356562000000       0.183395120161718     
   115.679534000000        23.8056675000000       1.292758431672963E-002
   115.688986500000        23.9356562000000       0.184441409131524     
   115.670252000000        23.6756787500000       0.182990753537289     
   115.679022000000        23.5456900000000       1.225525154975438E-002
   115.688304000000        23.6756787500000       0.184441478213744     
   115.669910500000        23.4157013000000       0.166866747351113     
   115.687621500000        23.4157012500000       0.178173618992520     
   115.652200000000        23.6756804000000       0.161416234382197     
   115.656755500000        23.8056685000000       5.945270149233383E-003
   115.656670500000        23.5456911500000       4.644857268388139E-003
   115.661226000000        23.6756792500000       0.169645000352314     
   115.652200000000        23.4157029500000       0.119010544985578     
   115.661055500000        23.4157020000000       0.135058409474455     
   115.665867000000        23.8056677000000       6.413671587281200E-003
   115.665611000000        23.5456903000000       5.738142782483776E-003
   115.661567500000        24.1956337500000       0.183831691994040     
   115.666379500000        24.3256224000000       6.343699337020442E-003
   115.666123000000        24.0656450000000       6.563363018143595E-003
   115.661396500000        23.9356565000000       0.183831621283401     
   115.652200000000        24.1956344500000       0.182454271835018     
   115.656926500000        24.3256224000000       6.345638800325898E-003
   115.656841000000        24.0656458000000       6.563363091286837E-003
   115.652200000000        23.9356578000000       0.182455324553396     
   115.652200000000        24.7631001500000       0.173865301310262     
   115.657118000000        24.9089250500000       5.331157770970948E-003
   115.657022000000        24.6172741500000       5.819542530548599E-003
   115.661940000000        24.7630990500000       0.175992983502432     
   115.652200000000        24.4714486000000       0.195781316581684     
   115.661748500000        24.4714479500000       0.195720648097048     
   115.666954000000        24.9089246000000       5.728318364332845E-003
   115.666666500000        24.6172735000000       5.949739885106967E-003
   115.671680500000        24.7630990500000       0.179911838097291     
   115.671297500000        24.4714479500000       0.193634907521999     
   115.662323000000        25.3464013000000       0.148293460863186     
   115.667528500000        25.4922268000000       5.960144129621489E-003