TITLE = "Visualization of the solution"
VARIABLES = "x","y","Density","Momentum_x","Momentum_y","Energy","Pressure","Temperature","Pressure_Coefficient","Mach"
ZONE NODES= 12566, ELEMENTS= 20571, DATAPACKING=POINT, ZONETYPE=FEQUADRILATERAL
1.156522e+02	1.373823e+01	3.912550e-01	2.887334e+02	1.354429e+01	1.067734e+05	4.402860e-01	3.788947e-03	-1.428569e+18	5.885900e+02	
1.156522e+02	1.478166e+01	7.154738e-01	4.774241e-03	-6.524122e+01	1.417412e+05	5.550665e+04	2.612130e+02	-1.176039e+18	2.766869e-01	
1.156522e+02	1.595338e+01	7.263104e-01	9.519508e-03	-5.978009e+01	1.409608e+05	5.540027e+04	2.568226e+02	-1.176523e+18	2.518695e-01	
1.156522e+02	1.726593e+01	7.656462e-01	6.710969e-03	-4.849528e+01	1.400725e+05	5.541467e+04	2.436914e+02	-1.176457e+18	1.989798e-01	
1.156522e+02	1.873939e+01	7.855122e-01	-1.507303e-03	-4.049374e+01	1.391048e+05	5.522443e+04	2.367129e+02	-1.177323e+18	1.643167e-01	
1.156522e+02	2.039162e+01	7.931124e-01	-7.880624e-03	-3.062816e+01	1.367889e+05	5.447900e+04	2.312799e+02	-1.180714e+18	1.245303e-01	
1.156522e+02	2.224580e+01	8.151718e-01	-6.512529e-02	-2.437021e+01	1.345809e+05	5.368665e+04	2.217485e+02	-1.184319e+18	9.845532e-02	
1.156522e+02	2.432562e+01	8.095058e-01	3.296671e-02	-2.341184e+01	1.333238e+05	5.319410e+04	2.212519e+02	-1.186560e+18	9.535211e-02	
1.156522e+02	2.665883e+01	7.642208e-01	4.020138e-03	-3.105687e+01	1.328873e+05	5.290248e+04	2.330777e+02	-1.187887e+18	1.305408e-01	
1.156522e+02	2.927610e+01	7.463211e-01	6.436122e-03	-3.406012e+01	1.326048e+05	5.273103e+04	2.378943e+02	-1.188667e+18	1.451063e-01	
1.156522e+02	3.221298e+01	7.446232e-01	-3.253214e-02	-3.834824e+01	1.332455e+05	5.290322e+04	2.392154e+02	-1.187883e+18	1.632948e-01	
1.156522e+02	3.550704e+01	6.629832e-01	-6.356253e-04	-6.303111e+01	1.370973e+05	5.364044e+04	2.724165e+02	-1.184529e+18	2.824838e-01	
1.156522e+02	3.920308e+01	6.657766e-01	-3.220892e-02	-5.889865e+01	1.393341e+05	5.469155e+04	2.765892e+02	-1.179747e+18	2.608657e-01	
1.156522e+02	4.334913e+01	6.706039e-01	-2.405204e-02	-4.320397e+01	1.424648e+05	5.642922e+04	2.833228e+02	-1.171842e+18	1.877045e-01	
1.156522e+02	4.800000e+01	6.773144e-01	-3.496936e-04	-1.790785e-01	1.452590e+05	5.810361e+04	2.888394e+02	-1.164224e+18	7.629281e-04	
1.156622e+02	1.373823e+01	4.082468e-01	2.934183e+02	1.830518e+01	1.111229e+05	2.107433e+03	1.738099e+01	-1.418983e+18	8.470876e+00	
1.156649e+02	1.478166e+01	7.159822e-01	-9.466077e-02	-6.319708e+01	1.415854e+05	5.551851e+04	2.610833e+02	-1.175985e+18	2.678943e-01	
1.156680e+02	1.595338e+01	7.282488e-01	-1.201444e-03	-5.518818e+01	1.405916e+05	5.540020e+04	2.561387e+02	-1.176523e+18	2.322130e-01	
1.156715e+02	1.726593e+01	7.641948e-01	-8.203963e-02	-4.427410e+01	1.398076e+05	5.541005e+04	2.441339e+02	-1.176478e+18	1.818403e-01	
1.156753e+02	1.873939e+01	7.740421e-01	-1.074404e-01	-3.725970e+01	1.389545e+05	5.522308e+04	2.402147e+02	-1.177329e+18	1.523122e-01	
1.156797e+02	2.039162e+01	7.827351e-01	-2.262077e-01	-2.804658e+01	1.367105e+05	5.448318e+04	2.343642e+02	-1.180695e+18	1.147866e-01	
1.156845e+02	2.224580e+01	8.034833e-01	-1.386954e-01	-2.357411e+01	1.346173e+05	5.370857e+04	2.250662e+02	-1.184219e+18	9.591105e-02	
1.156900e+02	2.432562e+01	7.981476e-01	6.217060e-02	-2.412570e+01	1.333327e+05	5.318721e+04	2.243714e+02	-1.186591e+18	9.896285e-02	
1.156961e+02	2.665883e+01	7.444049e-01	1.391994e-01	-3.211116e+01	1.329480e+05	5.290217e+04	2.392808e+02	-1.187888e+18	1.367586e-01	
1.157030e+02	2.927610e+01	7.331946e-01	1.373887e-01	-3.807406e+01	1.328137e+05	5.273003e+04	2.421488e+02	-1.188671e+18	1.636550e-01	
1.157107e+02	3.221298e+01	7.302049e-01	3.227993e-01	-4.817269e+01	1.338757e+05	5.291464e+04	2.439915e+02	-1.187831e+18	2.071268e-01	
1.157194e+02	3.550704e+01	6.558140e-01	1.000961e-01	-6.485647e+01	1.373099e+05	5.364117e+04	2.753982e+02	-1.184526e+18	2.922472e-01	
1.157291e+02	3.920308e+01	6.574107e-01	-1.785572e-01	-5.987136e+01	1.394800e+05	5.470146e+04	2.801597e+02	-1.179702e+18	2.668328e-01	
1.157400e+02	4.334913e+01	6.634384e-01	-4.716341e-01	-4.336847e+01	1.425113e+05	5.643746e+04	2.864246e+02	-1.171804e+18	1.894313e-01	
1.157522e+02	4.800000e+01	6.712758e-01	-1.303690e+00	-1.509986e-01	1.452733e+05	5.810880e+04	2.914637e+02	-1.164200e+18	5.616072e-03	
1.156734e+02	1.373820e+01	4.145161e-01	2.972742e+02	1.990955e+01	1.128672e+05	2.317012e+03	1.882047e+01	-1.418030e+18	8.125127e+00	
1.156792e+02	1.478162e+01	7.161225e-01	-2.547373e-01	-5.948806e+01	1.413160e+05	5.553804e+04	2.611240e+02	-1.175896e+18	2.521046e-01	
1.156857e+02	1.595333e+01	7.288635e-01	-4.735400e-02	-4.995037e+01	1.402243e+05	5.540510e+04	2.559452e+02	-1.176501e+18	2.100762e-01	
1.156930e+02	1.726588e+01	7.600759e-01	-1.164910e-01	-4.009988e+01	1.395707e+05	5.540515e+04	2.454351e+02	-1.176501e+18	1.651495e-01	
1.157013e+02	1.873932e+01	7.606515e-01	-2.423860e-01	-3.366329e+01	1.387786e+05	5.521345e+04	2.444009e+02	-1.177373e+18	1.388316e-01	
1.157105e+02	2.039154e+01	7.704152e-01	-4.022143e-01	-2.558284e+01	1.366348e+05	5.448399e+04	2.381155e+02	-1.180692e+18	1.055459e-01	
1.157208e+02	2.224571e+01	7.856495e-01	-2.087107e-01	-2.292161e+01	1.346208e+05	5.371457e+04	2.302008e+02	-1.184192e+18	9.430585e-02	
1.157324e+02	2.432551e+01	7.755775e-01	2.637996e-01	-2.547011e+01	1.333907e+05	5.318897e+04	2.309085e+02	-1.186583e+18	1.059904e-01	
1.157454e+02	2.665870e+01	7.265602e-01	2.730756e-01	-3.375995e+01	1.330433e+05	5.290358e+04	2.451642e+02	-1.187882e+18	1.455371e-01	
1.157599e+02	2.927595e+01	7.182099e-01	3.596992e-01	-4.304814e+01	1.331169e+05	5.273067e+04	2.472040e+02	-1.188668e+18	1.869598e-01	
1.157763e+02	3.221281e+01	7.085629e-01	7.980642e-01	-5.852317e+01	1.347043e+05	5.291481e+04	2.514446e+02	-1.187831e+18	2.554620e-01	
1.157946e+02	3.550684e+01	6.481468e-01	1.634359e-01	-6.607702e+01	1.374698e+05	5.364062e+04	2.786532e+02	-1.184529e+18	2.995051e-01	
1.158152e+02	3.920286e+01	6.496740e-01	-3.647215e-01	-6.053623e+01	1.395858e+05	5.470614e+04	2.835203e+02	-1.179681e+18	2.713897e-01	
1.158383e+02	4.334887e+01	6.572010e-01	-1.008494e+00	-4.337390e+01	1.425284e+05	5.643852e+04	2.891485e+02	-1.171799e+18	1.903903e-01	
1.158642e+02	4.799971e+01	6.663578e-01	-2.736951e+00	-1.315909e-01	1.452725e+05	5.810676e+04	2.936045e+02	-1.164209e+18	1.176894e-02	
1.156859e+02	1.373813e+01	4.168011e-01	2.992505e+02	2.101043e+01	1.136964e+05	2.296203e+03	1.854919e+01	-1.418125e+18	8.195379e+00	
1.156952e+02	1.478153e+01	7.155195e-01	-4.521615e-01	-5.442537e+01	1.409847e+05	5.556586e+04	2.614749e+02	-1.175770e+18	2.306947e-01	
1.157056e+02	1.595322e+01	7.243209e-01	-8.911928e-02	-4.348918e+01	1.398201e+05	5.540581e+04	2.575537e+02	-1.176498e+18	1.834742e-01	
1.157172e+02	1.726574e+01	7.497473e-01	-8.861862e-02	-3.571770e+01	1.393232e+05	5.538898e+04	2.487436e+02	-1.176574e+18	1.481329e-01	
1.157303e+02	1.873916e+01	7.467413e-01	-3.896916e-01	-2.957331e+01	1.385699e+05	5.519368e+04	2.488644e+02	-1.177463e+18	1.231243e-01	
1.157449e+02	2.039134e+01	7.572956e-01	-5.597476e-01	-2.314749e+01	1.365615e+05	5.448303e+04	2.422364e+02	-1.180696e+18	9.633931e-02	
1.157614e+02	2.224548e+01	7.633694e-01	-2.529660e-01	-2.232725e+01	1.346346e+05	5.372323e+04	2.369578e+02	-1.184153e+18	9.318599e-02	
1.157798e+02	2.432525e+01	7.471594e-01	5.198844e-01	-2.798756e+01	1.335187e+05	5.319772e+04	2.397305e+02	-1.186544e+18	1.186650e-01	
1.158005e+02	2.665839e+01	7.155728e-01	4.214472e-01	-3.747543e+01	1.332570e+05	5.291021e+04	2.489598e+02	-1.187852e+18	1.627847e-01	
1.158237e+02	2.927559e+01	7.027969e-01	6.682871e-01	-5.110792e+01	1.336977e+05	5.273565e+04	2.526492e+02	-1.188646e+18	2.243852e-01	
1.158497e+02	3.221240e+01	6.727388e-01	1.200929e+00	-6.541458e+01	1.354824e+05	5.292041e+04	2.648624e+02	-1.187805e+18	2.930548e-01	
1.158789e+02	3.550637e+01	6.411449e-01	1.687789e-01	-6.676783e+01	1.375736e+05	5.363882e+04	2.816868e+02	-1.184537e+18	3.042895e-01	
1.159117e+02	3.920232e+01	6.436158e-01	-5.828378e-01	-6.067868e+01	1.396300e+05	5.470775e+04	2.861974e+02	-1.179674e+18	2.733093e-01	
1.159484e+02	4.334826e+01	6.529105e-01	-1.611661e+00	-4.306306e+01	1.425199e+05	5.643913e+04	2.910517e+02	-1.171797e+18	1.897264e-01	
1.159896e+02	4.799901e+01	6.635681e-01	-4.333233e+00	-1.230316e-01	1.452747e+05	5.810422e+04	2.948259e+02	-1.164221e+18	1.865849e-02	
1.157000e+02	1.373801e+01	4.303826e-01	3.069519e+02	2.624824e+01	1.169094e+05	2.659517e+03	2.080614e+01	-1.416472e+18	7.695905e+00	
1.157131e+02	1.478137e+01	7.126376e-01	-6.229428e-01	-4.797781e+01	1.405824e+05	5.558683e+04	2.626314e+02	-1.175674e+18	2.037477e-01	
1.157278e+02	1.595302e+01	7.151168e-01	-1.604459e-01	-3.797693e+01	1.395266e+05	5.540726e+04	2.608755e+02	-1.176491e+18	1.612456e-01	
1.157443e+02	1.726550e+01	7.356362e-01	-9.546692e-02	-3.237518e+01	1.391553e+05	5.537717e+04	2.534610e+02	-1.176628e+18	1.355667e-01	
1.157628e+02	1.873887e+01	7.319382e-01	-5.148944e-01	-2.697427e+01	1.384415e+05	5.517773e+04	2.538242e+02	-1.177535e+18	1.134607e-01	
1.157835e+02	2.039100e+01	7.435484e-01	-6.469534e-01	-2.199968e+01	1.365285e+05	5.448112e+04	2.467064e+02	-1.180705e+18	9.241924e-02	
1.158068e+02	2.224508e+01	7.475484e-01	-2.070478e-01	-2.241337e+01	1.346649e+05	5.373155e+04	2.420102e+02	-1.184115e+18	9.452077e-02	
1.158329e+02	2.432478e+01	7.307116e-01	7.958292e-01	-3.085891e+01	1.336688e+05	5.320669e+04	2.451680e+02	-1.186503e+18	1.323137e-01	
1.158622e+02	2.665785e+01	7.068969e-01	6.770377e-01	-4.317166e+01	1.336165e+05	5.291915e+04	2.520579e+02	-1.187811e+18	1.886704e-01	
1.158951e+02	2.927496e+01	6.852651e-01	1.012254e+00	-5.793416e+01	1.343054e+05	5.274229e+04	2.591457e+02	-1.188616e+18	2.575895e-01	
1.159319e+02	3.221167e+01	6.521548e-01	1.459984e+00	-6.809680e+01	1.358737e+05	5.292670e+04	2.732547e+02	-1.187777e+18	3.098487e-01	
1.159733e+02	3.550553e+01	6.357182e-01	1.211435e-01	-6.692542e+01	1.376117e+05	5.363555e+04	2.840741e+02	-1.184552e+18	3.063156e-01	
1.160197e+02	3.920136e+01	6.393690e-01	-8.493919e-01	-6.017659e+01	1.396025e+05	5.470803e+04	2.880998e+02	-1.179672e+18	2.719603e-01	
1.160717e+02	4.334717e+01	6.504065e-01	-2.282515e+00	-4.236554e+01	1.424767e+05	5.643717e+04	2.921621e+02	-1.171805e+18	1.871557e-01	
1.161301e+02	4.799776e+01	6.624373e-01	-6.150904e+00	-1.260383e-01	1.452682e+05	5.809584e+04	2.952866e+02	-1.164259e+18	2.650460e-02	
1.157157e+02	1.373781e+01	4.832933e-01	3.387266e+02	3.926051e+01	1.305121e+05	4.086195e+03	2.846766e+01	-1.409981e+18	6.485122e+00	
1.157331e+02	1.478112e+01	7.084183e-01	-7.758326e-01	-4.101595e+01	1.402112e+05	5.560937e+04	2.643028e+02	-1.175572e+18	1.746818e-01	
1.157527e+02	1.595271e+01	7.041898e-01	-2.024008e-01	-3.313559e+01	1.393072e+05	5.541103e+04	2.649415e+02	-1.176474e+18	1.417737e-01	
1.157746e+02	1.726512e+01	7.192278e-01	-1.046408e-01	-2.967404e+01	1.390288e+05	5.536667e+04	2.591943e+02	-1.176676e+18	1.256776e-01	
1.157992e+02	1.873842e+01	7.152526e-01	-6.385480e-01	-2.529868e+01	1.383463e+05	5.515942e+04	2.596592e+02	-1.177619e+18	1.076794e-01	
1.158268e+02	2.039046e+01	7.279902e-01	-7.313502e-01	-2.149360e+01	1.365100e+05	5.447692e+04	2.519594e+02	-1.180724e+18	9.126984e-02	
1.158577e+02	2.224444e+01	7.324107e-01	-1.078533e-01	-2.323387e+01	1.347171e+05	5.373943e+04	2.470484e+02	-1.184079e+18	9.897793e-02	
1.158924e+02	2.432403e+01	7.173645e-01	1.092353e+00	-3.408673e+01	1.338519e+05	5.321647e+04	2.497754e+02	-1.186458e+18	1.475201e-01	
1.159313e+02	2.665698e+01	6.971911e-01	1.041728e+00	-4.898908e+01	1.340416e+05	5.292789e+04	2.556091e+02	-1.187771e+18	2.155833e-01	
1.159750e+02	2.927396e+01	6.681021e-01	1.341829e+00	-6.294107e+01	1.348397e+05	5.274944e+04	2.658389e+02	-1.188583e+18	2.834252e-01	
1.160240e+02	3.221052e+01	6.391598e-01	1.575421e+00	-6.936952e+01	1.360997e+05	5.293332e+04	2.788452e+02	-1.187747e+18	3.188213e-01	
1.160790e+02	3.550421e+01	6.316517e-01	3.680024e-02	-6.662375e+01	1.375909e+05	5.363092e+04	2.858783e+02	-1.184573e+18	3.059276e-01	
1.161407e+02	3.919984e+01	6.365489e-01	-1.163429e+00	-5.905290e+01	1.395018e+05	5.470462e+04	2.893582e+02	-1.179688e+18	2.675060e-01	
1.162099e+02	4.334543e+01	6.490179e-01	-3.034377e+00	-4.129002e+01	1.423984e+05	5.643116e+04	2.927560e+02	-1.171833e+18	1.828365e-01	
1.162875e+02	4.799579e+01	6.620381e-01	-8.213518e+00	-1.249836e-01	1.452438e+05	5.807714e+04	2.953696e+02	-1.164344e+18	3.540555e-02	
1.157333e+02	1.373751e+01	5.174680e-01	3.614808e+02	4.800002e+01	1.401987e+05	4.686015e+03	3.049044e+01	-1.407252e+18	6.258541e+00	
1.157556e+02	1.478074e+01	6.994337e-01	-9.309984e-01	-3.383121e+01	1.399242e+05	5.564216e+04	2.678558e+02	-1.175422e+18	1.449915e-01	
1.157806e+02	1.595225e+01	6.918393e-01	-1.942356e-01	-2.897439e+01	1.391550e+05	5.541928e+04	2.697113e+02	-1.176436e+18	1.250625e-01	
1.158085e+02	1.726455e+01	7.017388e-01	-9.836057e-02	-2.771108e+01	1.389430e+05	5.535835e+04	2.656142e+02	-1.176714e+18	1.188264e-01	
1.158400e+02	1.873774e+01	6.971481e-01	-7.524863e-01	-2.456117e+01	1.382820e+05	5.513959e+04	2.663067e+02	-1.177709e+18	1.059240e-01	
1.158752e+02	2.038965e+01	7.097810e-01	-8.196425e-01	-2.197782e+01	1.365193e+05	5.447142e+04	2.583972e+02	-1.180749e+18	9.453134e-02	
1.159147e+02	2.224349e+01	7.165339e-01	2.335492e-02	-2.539608e+01	1.348180e+05	5.374718e+04	2.525588e+02	-1.184044e+18	1.093721e-01	
1.159590e+02	2.432292e+01	7.053188e-01	1.435237e+00	-3.788802e+01	1.340885e+05	5.322775e+04	2.540950e+02	-1.186407e+18	1.653817e-01	
1.160088e+02	2.665569e+01	6.853697e-01	1.484286e+00	-5.400005e+01	1.344719e+05	5.293717e+04	2.600635e+02	-1.187729e+18	2.396908e-01	
1.160646e+02	2.927246e+01	6.530103e-01	1.633614e+00	-6.591194e+01	1.352195e+05	5.275643e+04	2.720188e+02	-1.188551e+18	3.002173e-01	
1.161272e+02	3.220880e+01	6.312561e-01	1.608740e+00	-6.952098e+01	1.361807e+05	5.294016e+04	2.823730e+02	-1.187715e+18	3.214939e-01	
1.161974e+02	3.550223e+01	6.285681e-01	-8.304766e-02	-6.574261e+01	1.375001e+05	5.362484e+04	2.872481e+02	-1.184600e+18	3.026385e-01	
1.162762e+02	3.919758e+01	6.347029e-01	-1.529816e+00	-5.748221e+01	1.393497e+05	5.469795e+04	2.901644e+02	-1.179718e+18	2.608269e-01	
1.163645e+02	4.334285e+01	6.481261e-01	-3.860388e+00	-3.986525e+01	1.422836e+05	5.641844e+04	2.930928e+02	-1.171891e+18	1.770178e-01	
1.164637e+02	4.799285e+01	6.617496e-01	-1.047773e+01	-1.052388e-01	1.451992e+05	5.804649e+04	2.953425e+02	-1.164484e+18	4.518457e-02	
1.157531e+02	1.373709e+01	5.817387e-01	3.996743e+02	6.526203e+01	1.563065e+05	6.140331e+03	3.553918e+01	-1.400635e+18	5.726593e+00	
1.157807e+02	1.478021e+01	6.866761e-01	-1.020170e+00	-2.714437e+01	1.397009e+05	5.566547e+04	2.729465e+02	-1.175316e+18	1.174231e-01	
1.158118e+02	1.595158e+01	6.797362e-01	-1.142964e-01	-2.539059e+01	1.390435e+05	5.542770e+04	2.745554e+02	-1.176398e+18	1.105553e-01	
1.158466e+02	1.726374e+01	6.849381e-01	-6.506794e-02	-2.635056e+01	1.388846e+05	5.535109e+04	2.720937e+02	-1.176747e+18	1.143769e-01	
1.158856e+02	1.873676e+01	6.797444e-01	-8.439953e-01	-2.499971e+01	1.382575e+05	5.511889e+04	2.730224e+02	-1.177803e+18	1.092183e-01	
1.159294e+02	2.038850e+01	6.889485e-01	-9.238443e-01	-2.465640e+01	1.366048e+05	5.446520e+04	2.661803e+02	-1.180777e+18	1.076508e-01	
1.159785e+02	2.224213e+01	6.980095e-01	1.430414e-01	-2.979644e+01	1.350251e+05	5.375564e+04	2.593022e+02	-1.184005e+18	1.300058e-01	
1.160336e+02	2.432133e+01	6.921608e-01	1.829205e+00	-4.269243e+01	1.344193e+05	5.324011e+04	2.589855e+02	-1.186351e+18	1.881318e-01	
1.160955e+02	2.665384e+01	6.706045e-01	1.947097e+00	-5.784458e+01	1.348653e+05	5.294708e+04	2.658393e+02	-1.187684e+18	2.595914e-01	
1.161648e+02	2.927032e+01	6.404877e-01	1.885006e+00	-6.716747e+01	1.354307e+05	5.276241e+04	2.773687e+02	-1.188524e+18	3.089216e-01	
1.162427e+02	3.220633e+01	6.261471e-01	1.618920e+00	-6.906546e+01	1.361784e+05	5.294690e+04	2.847133e+02	-1.187685e+18	3.206695e-01	
1.163300e+02	3.549940e+01	6.261684e-01	-2.330622e-01	-6.433042e+01	1.373461e+05	5.361661e+04	2.883047e+02	-1.184638e+18	2.967290e-01	
1.164279e+02	3.919435e+01	6.334244e-01	-1.932623e+00	-5.567434e+01	1.391679e+05	5.468730e+04	2.906935e+02	-1.179767e+18	2.529659e-01	
1.165378e+02	4.333916e+01	6.475077e-01	-4.773191e+00	-3.810934e+01	1.421389e+05	5.639993e+04	2.932764e+02	-1.171975e+18	1.698579e-01	
1.166610e+02	4.798864e+01	6.613196e-01	-1.286373e+01	-6.128433e-02	1.451453e+05	5.800809e+04	2.953389e+02	-1.164658e+18	5.550828e-02	
1.157752e+02	1.373651e+01	6.864983e-01	4.567715e+02	1.003824e+02	1.833236e+05	9.609876e+03	4.713265e+01	-1.384850e+18	4.866296e+00	
1.158089e+02	1.477946e+01	6.741347e-01	-1.068480e+00	-2.180118e+01	1.395815e+05	5.569123e+04	2.781530e+02	-1.175199e+18	9.520728e-02	
1.158467e+02	1.595065e+01	6.694077e-01	3.042009e-02	-2.251855e+01	1.389717e+05	5.543716e+04	2.788392e+02	-1.176355e+18	9.879408e-02	
1.158891e+02	1.726261e+01	6.704544e-01	1.189653e-02	-2.541735e+01	1.388396e+05	5.534312e+04	2.779316e+02	-1.176783e+18	1.115193e-01	
1.159367e+02	1.873541e+01	6.651766e-01	-8.768080e-01	-2.700801e+01	1.382935e+05	5.509786e+04	2.788954e+02	-1.177899e+18	1.192948e-01	
1.159901e+02	2.038689e+01	6.684128e-01	-1.019781e+00	-3.031089e+01	1.368398e+05	5.446069e+04	2.743354e+02	-1.180798e+18	1.343434e-01	
1.160500e+02	2.224023e+01	6.751458e-01	2.285291e-01	-3.710150e+01	1.354291e+05	5.376386e+04	2.681245e+02	-1.183968e+18	1.645855e-01	
1.161172e+02	2.431911e+01	6.739966e-01	2.207161e+00	-4.894652e+01	1.349194e+05	5.325540e+04	2.660416e+02	-1.186281e+18	2.185688e-01	
1.161926e+02	2.665126e+01	6.524672e-01	2.309701e+00	-6.071440e+01	1.352113e+05	5.295294e+04	2.732593e+02	-1.187657e+18	2.762596e-01	
1.162771e+02	2.926735e+01	6.301240e-01	2.100868e+00	-6.728503e+01	1.355103e+05	5.276579e+04	2.819486e+02	-1.188509e+18	3.120160e-01	
1.163720e+02	3.220291e+01	6.223943e-01	1.595332e+00	-6.831013e+01	1.361280e+05	5.295092e+04	2.864517e+02	-1.187666e+18	3.181046e-01	
1.164784e+02	3.549547e+01	6.242283e-01	-4.112783e-01	-6.267181e+01	1.371611e+05	5.360596e+04	2.891434e+02	-1.184686e+18	2.895605e-01	
1.165978e+02	3.918984e+01	6.323953e-01	-2.370934e+00	-5.378045e+01	1.389750e+05	5.467349e+04	2.910930e+02	-1.179829e+18	2.446805e-01	
1.167318e+02	4.333402e+01	6.469387e-01	-5.791876e+00	-3.604728e+01	1.419706e+05	5.637616e+04	2.934107e+02	-1.172083e+18	1.615712e-01	
1.168820e+02	4.798278e+01	6.606971e-01	-1.527777e+01	2.461937e-02	1.451011e+05	5.796977e+04	2.954219e+02	-1.164833e+18	6.597729e-02	
1.157999e+02	1.373571e+01	7.503004e-01	4.786556e+02	1.360956e+02	2.004186e+05	1.415835e+04	6.353616e+01	-1.364157e+18	4.080530e+00	
1.158404e+02	1.477844e+01	6.656142e-01	-1.032230e+00	-1.810685e+01	1.395547e+05	5.572303e+04	2.818745e+02	-1.175054e+18	7.958934e-02	
1.158859e+02	1.594939e+01	6.619701e-01	2.051286e-01	-2.071288e+01	1.389407e+05	5.544666e+04	2.820204e+02	-1.176312e+18	9.137782e-02	
1.159368e+02	1.726107e+01	6.599873e-01	1.533150e-01	-2.492897e+01	1.388050e+05	5.533366e+04	2.822912e+02	-1.176826e+18	1.102519e-01	
1.159940e+02	1.873356e+01	6.549488e-01	-8.160893e-01	-2.985279e+01	1.383721e+05	5.507650e+04	2.831409e+02	-1.177996e+18	1.328912e-01	
1.160581e+02	2.038469e+01	6.524052e-01	-1.084002e+00	-3.697542e+01	1.371999e+05	5.446046e+04	2.810655e+02	-1.180799e+18	1.658580e-01	
1.161301e+02	2.223765e+01	6.518123e-01	2.488385e-01	-4.549753e+01	1.359984e+05	5.376419e+04	2.777244e+02	-1.183966e+18	2.054104e-01	
1.162108e+02	2.431609e+01	6.477515e-01	2.305056e+00	-5.565316e+01	1.355477e+05	5.326114e+04	2.768507e+02	-1.186255e+18	2.534478e-01	
1.163013e+02	2.664775e+01	6.330199e-01	2.549956e+00	-6.302560e+01	1.355933e+05	5.298024e+04	2.817995e+02	-1.187533e+18	2.911002e-01	
1.164029e+02	2.926328e+01	6.215214e-01	2.282802e+00	-6.693143e+01	1.355332e+05	5.277003e+04	2.858741e+02	-1.188489e+18	3.125337e-01	
1.165168e+02	3.219822e+01	6.190087e-01	1.479120e+00	-6.700845e+01	1.359875e+05	5.294356e+04	2.879784e+02	-1.187700e+18	3.129078e-01	
1.166447e+02	3.549009e+01	6.226176e-01	-6.340414e-01	-6.121386e+01	1.369921e+05	5.359302e+04	2.898214e+02	-1.184745e+18	2.832332e-01	
1.167881e+02	3.918369e+01	6.314260e-01	-2.865342e+00	-5.195904e+01	1.387865e+05	5.465687e+04	2.914512e+02	-1.179905e+18	2.367407e-01	
1.169490e+02	4.332699e+01	6.462151e-01	-6.933046e+00	-3.383304e+01	1.417986e+05	5.635029e+04	2.936045e+02	-1.172201e+18	1.529581e-01	
1.171295e+02	4.797478e+01	6.602131e-01	-1.767196e+01	-8.852763e-02	1.451315e+05	5.795800e+04	2.955785e+02	-1.164886e+18	7.635323e-02	
1.158276e+02	1.373463e+01	6.442663e-01	4.132507e+02	1.256245e+02	1.794040e+05	1.384838e+04	7.237309e+01	-1.365567e+18	3.864651e+00	
1.158757e+02	1.477707e+01	6.615302e-01	-1.253672e+00	-1.598865e+01	1.391460e+05	5.558064e+04	2.828899e+02	-1.175702e+18	7.068742e-02	
1.159297e+02	1.594769e+01	6.585371e-01	3.716780e-01	-2.009184e+01	1.389397e+05	5.545323e+04	2.835242e+02	-1.176282e+18	8.887434e-02	
1.159902e+02	1.725900e+01	6.552686e-01	3.794507e-01	-2.498817e+01	1.388061e+05	5.533183e+04	2.843147e+02	-1.176834e+18	1.109235e-01	
1.160581e+02	1.873107e+01	6.501622e-01	-6.112029e-01	-3.156480e+01	1.384181e+05	5.506063e+04	2.851432e+02	-1.178068e+18	1.410227e-01	
1.161343e+02	2.038173e+01	6.444475e-01	-9.524992e-01	-4.069142e+01	1.374809e+05	5.447823e+04	2.846289e+02	-1.180718e+18	1.835915e-01	
1.162197e+02	2.223416e+01	6.379676e-01	3.324231e-01	-5.052774e+01	1.364471e+05	5.377845e+04	2.838267e+02	-1.183901e+18	2.305535e-01	
1.163155e+02	2.431202e+01	6.270447e-01	2.182924e+00	-5.960594e+01	1.360283e+05	5.327658e+04	2.860760e+02	-1.186185e+18	2.758031e-01	
1.164231e+02	2.664302e+01	6.211479e-01	2.631827e+00	-6.407590e+01	1.357382e+05	5.297109e+04	2.871359e+02	-1.187575e+18	2.987994e-01	
1.165437e+02	2.925781e+01	6.167981e-01	2.304494e+00	-6.640877e+01	1.354321e+05	5.274110e+04	2.879054e+02	-1.188621e+18	3.113699e-01	
1.166790e+02	3.219193e+01	6.172112e-01	1.389674e+00	-6.574262e+01	1.359432e+05	5.297612e+04	2.889947e+02	-1.187552e+18	3.073428e-01	
1.168308e+02	3.548287e+01	6.214689e-01	-9.533140e-01	-6.033910e+01	1.368556e+05	5.357027e+04	2.902338e+02	-1.184849e+18	2.795229e-01	
1.170012e+02	3.917542e+01	6.304695e-01	-3.510641e+00	-5.058936e+01	1.385938e+05	5.462175e+04	2.917058e+02	-1.180065e+18	2.309529e-01	
1.171922e+02	4.331755e+01	6.454729e-01	-8.178836e+00	-3.205188e+01	1.416844e+05	5.633473e+04	2.938608e+02	-1.172271e+18	1.466090e-01	
1.174066e+02	4.796402e+01	6.516232e-01	-2.216807e+01	-7.753863e-01	1.426876e+05	5.692402e+04	2.941322e+02	-1.169590e+18	9.733821e-02	
2.967598e+02	3.161046e+00	1.003145e+00	4.682388e+02	-4.425645e+01	2.418715e+05	5.264608e+04	1.767037e+02	-1.189053e+18	1.729696e+00	
3.030726e+00	3.293847e+01	3.684713e+00	1.413663e+02	-6.879293e+00	7.810724e+05	3.113416e+05	2.844966e+02	-1.209440e+16	1.116799e-01	
1.157969e+02	1.371945e+01	5.814214e-01	3.403624e+02	9.948619e+01	1.568974e+05	1.950492e+04	1.129527e+02	-1.339832e+18	2.814247e+00	
1.157766e+02	1.371570e+01	6.118831e-01	3.592443e+02	9.844755e+01	1.648724e+05	2.059769e+04	1.133427e+02	-1.334860e+18	2.804184e+00	
1.158370e+02	1.371347e+01	5.315125e-01	3.043841e+02	8.840317e+01	1.427924e+05	1.931359e+04	1.223469e+02	-1.340703e+18	2.643959e+00	
1.157542e+02	1.364922e+01	7.269868e-01	3.878942e+02	5.271388e+01	1.881389e+05	3.309781e+04	1.532909e+02	-1.277990e+18	2.132849e+00	
1.159981e+02	1.351066e+01	8.210726e-01	4.238528e+02	3.578173e+01	2.054880e+05	3.812322e+04	1.563333e+02	-1.255126e+18	2.031924e+00	
1.159089e+02	1.370476e+01	5.016622e-01	2.818366e+02	8.215329e+01	1.338092e+05	1.916550e+04	1.286330e+02	-1.341376e+18	2.530324e+00	
1.159570e+02	1.362081e+01	6.447392e-01	3.459965e+02	6.409131e+01	1.649652e+05	2.757637e+04	1.440113e+02	-1.303110e+18	2.230350e+00	
1.159236e+02	1.360552e+01	6.947266e-01	3.689106e+02	5.723895e+01	1.766125e+05	3.052236e+04	1.479271e+02	-1.289707e+18	2.166739e+00	
1.160289e+02	1.265974e+01	9.733593e-01	4.824022e+02	-3.894656e+00	2.403864e+05	4.833519e+04	1.671991e+02	-1.208666e+18	1.879711e+00	
1.157848e+02	1.279994e+01	9.798430e-01	4.846881e+02	-2.404536e+00	2.418553e+05	4.878986e+04	1.676550e+02	-1.206598e+18	1.873530e+00	
1.161334e+02	1.338395e+01	9.017233e-01	4.560202e+02	1.806522e+01	2.240763e+05	4.343436e+04	1.621824e+02	-1.230963e+18	1.948979e+00	
1.160265e+02	1.343891e+01	9.053248e-01	4.574379e+02	1.830353e+01	2.249480e+05	4.367882e+04	1.624464e+02	-1.229851e+18	1.945709e+00	
1.158665e+02	1.366679e+01	5.965965e-01	3.267014e+02	7.027798e+01	1.562170e+05	2.505020e+04	1.413754e+02	-1.314603e+18	2.310275e+00	
1.160248e+02	1.358226e+01	6.803458e-01	3.621194e+02	5.950846e+01	1.726019e+05	2.945156e+04	1.457546e+02	-1.294579e+18	2.191065e+00	
1.162047e+02	1.324426e+01	9.631737e-01	4.790897e+02	3.027524e+00	2.382263e+05	4.762806e+04	1.664953e+02	-1.211883e+18	1.890505e+00	
1.163370e+02	1.262150e+01	9.701981e-01	4.812121e+02	-5.391152e+00	2.396316e+05	4.811103e+04	1.669659e+02	-1.209686e+18	1.882553e+00	
1.164539e+02	1.331674e+01	7.881011e-01	4.108922e+02	3.762539e+01	1.978867e+05	3.595006e+04	1.535894e+02	-1.265013e+18	2.071745e+00	
1.160231e+02	1.328424e+01	9.855937e-01	4.868648e+02	-2.709653e-01	2.432029e+05	4.918074e+04	1.680121e+02	-1.204819e+18	1.868951e+00	
1.160978e+02	1.350676e+01	7.592290e-01	3.977440e+02	4.638643e+01	1.910402e+05	3.417532e+04	1.515596e+02	-1.273088e+18	2.101021e+00	
1.159878e+02	1.366207e+01	5.524582e-01	3.024228e+02	7.421883e+01	1.439329e+05	2.246896e+04	1.369390e+02	-1.326347e+18	2.362158e+00	
1.166081e+02	1.212313e+01	9.535095e-01	4.750944e+02	-8.299679e+00	2.357847e+05	4.695544e+04	1.658076e+02	-1.214943e+18	1.897915e+00	
1.335459e+02	2.627601e+01	5.722179e-01	1.596071e+01	-2.293752e+01	1.249717e+05	4.971575e+04	2.925339e+02	-1.202385e+18	1.400228e-01	
1.369858e+02	2.866540e+01	5.640320e-01	4.413282e+00	-1.585395e+01	1.230272e+05	4.911483e+04	2.931922e+02	-1.205119e+18	8.356453e-02	
1.406753e+02	2.686841e+01	5.600639e-01	1.246611e+01	-1.056100e+01	1.221119e+05	4.874942e+04	2.930727e+02	-1.206782e+18	8.356766e-02	
1.332108e+02	2.452305e+01	5.753810e-01	2.393739e+01	-2.326545e+01	1.257876e+05	4.992772e+04	2.921661e+02	-1.201421e+18	1.664503e-01	
1.177677e+02	1.095053e+01	9.055721e-01	4.577960e+02	-1.625977e+01	2.250990e+05	4.369507e+04	1.624624e+02	-1.229777e+18	1.946274e+00	
1.164646e+02	1.302045e+01	9.660155e-01	4.800112e+02	-1.259640e+00	2.387936e+05	4.781380e+04	1.666529e+02	-1.211038e+18	1.887644e+00	
1.170876e+02	1.246944e+01	9.452208e-01	4.728477e+02	-6.396396e+00	2.342409e+05	4.637918e+04	1.652089e+02	-1.217565e+18	1.908837e+00	
1.163150e+02	1.172346e+01	9.422870e-01	4.712643e+02	-8.289015e+00	2.333361e+05	4.618132e+04	1.650162e+02	-1.218465e+18	1.909602e+00	
1.160659e+02	1.297221e+01	9.831756e-01	4.858178e+02	-3.064560e+00	2.425760e+05	4.901694e+04	1.678644e+02	-1.205564e+18	1.870378e+00	
1.159289e+02	1.346649e+01	9.383818e-01	4.698383e+02	1.217370e+01	2.325203e+05	4.592787e+04	1.647936e+02	-1.219618e+18	1.913384e+00	
1.160283e+02	1.379124e+01	2.620068e+00	1.223269e+03	-2.241994e+02	5.791762e+05	1.136084e+05	1.459962e+02	-9.116996e+17	1.926508e+00	
1.307437e+02	2.680013e+01	5.788714e-01	1.327669e+01	-2.916973e+01	1.265630e+05	5.027031e+04	2.923971e+02	-1.199862e+18	1.587833e-01	
1.331470e+02	2.921113e+01	5.715019e-01	2.722454e+00	-2.356359e+01	1.247824e+05	4.971604e+04	2.929020e+02	-1.202384e+18	1.189323e-01	
1.351996e+02	3.191409e+01	5.676941e-01	-1.028249e+01	-1.825255e+01	1.239445e+05	4.942319e+04	2.931298e+02	-1.203716e+18	1.057034e-01	
1.443886e+02	2.502660e+01	5.584759e-01	2.056844e+01	-6.775955e+00	1.217925e+05	4.854907e+04	2.926982e+02	-1.207693e+18	1.111521e-01	
1.367177e+02	2.488093e+01	5.674679e-01	2.264039e+01	-1.679992e+01	1.239120e+05	4.928466e+04	2.924247e+02	-1.204346e+18	1.424771e-01	
1.299723e+02	2.288818e+01	5.870359e-01	2.914508e+01	-2.876763e+01	1.285626e+05	5.085370e+04	2.916765e+02	-1.197208e+18	2.003136e-01	
1.300041e+02	2.050184e+01	5.922900e-01	3.886626e+01	-2.643124e+01	1.298535e+05	5.119540e+04	2.910316e+02	-1.195653e+18	2.281237e-01	
1.187465e+02	1.031777e+01	8.814606e-01	4.486874e+02	-1.994968e+01	2.195997e+05	4.207076e+04	1.607019e+02	-1.237167e+18	1.971138e+00	
1.184732e+02	1.127742e+01	9.015188e-01	4.563739e+02	-1.589306e+01	2.241771e+05	4.340895e+04	1.621243e+02	-1.231078e+18	1.950936e+00	
1.168821e+02	1.317462e+01	1.010554e+00	4.923305e+02	-1.242015e+01	2.480518e+05	5.121862e+04	1.706523e+02	-1.195548e+18	1.829520e+00	
1.173604e+02	1.174674e+01	9.318113e-01	4.674827e+02	-1.229641e+01	2.310287e+05	4.547254e+04	1.643103e+02	-1.221690e+18	1.920053e+00	
1.176158e+02	9.885223e+00	8.803814e-01	4.480382e+02	-1.806282e+01	2.192068e+05	4.200604e+04	1.606514e+02	-1.237461e+18	1.970663e+00	
1.168656e+02	1.151858e+01	9.326402e-01	4.674991e+02	-1.148630e+01	2.310665e+05	4.553019e+04	1.643724e+02	-1.221428e+18	1.917966e+00	
1.161523e+02	1.365804e+01	1.288999e+00	4.697182e+02	-8.329866e+01	3.009452e+05	8.506791e+04	2.222064e+02	-1.041547e+18	1.217553e+00	
1.277355e+02	2.766388e+01	5.868387e-01	9.229701e+00	-3.662143e+01	1.285083e+05	5.091724e+04	2.921391e+02	-1.196919e+18	1.846512e-01	
1.297705e+02	2.981362e+01	5.799931e-01	8.373874e-01	-3.143457e+01	1.268289e+05	5.039056e+04	2.925297e+02	-1.199315e+18	1.554575e-01	
1.318316e+02	3.251248e+01	5.756431e-01	-1.133047e+01	-2.520891e+01	1.258046e+05	5.005644e+04	2.927860e+02	-1.200835e+18	1.376064e-01	
1.537426e+02	2.590790e+01	5.544330e-01	1.707114e+01	-3.587286e-01	1.208297e+05	4.822671e+04	2.928748e+02	-1.209160e+18	8.825230e-02	
1.514843e+02	2.144881e+01	5.601068e-01	3.706670e+01	-4.583677e-01	1.222899e+05	4.842529e+04	2.911018e+02	-1.208256e+18	1.902311e-01	
1.486888e+02	2.559982e+01	5.558443e-01	1.767161e+01	-3.197254e+00	1.211613e+05	4.834849e+04	2.928690e+02	-1.208606e+18	9.258449e-02	
1.464312e+02	2.129246e+01	5.621917e-01	3.707904e+01	-5.223152e+00	1.228145e+05	4.862701e+04	2.912304e+02	-1.207338e+18	1.914036e-01	
1.400152e+02	3.139593e+01	5.601251e-01	-9.418668e+00	-1.050369e+01	1.222024e+05	4.880988e+04	2.934041e+02	-1.206506e+18	7.211215e-02	
1.407383e+02	2.167893e+01	5.662730e-01	3.635717e+01	-1.165662e+01	1.237989e+05	4.900470e+04	2.913771e+02	-1.205620e+18	1.937052e-01	
1.386579e+02	3.591534e+01	5.659642e-01	-3.120117e+01	-1.064162e+01	1.239291e+05	4.918762e+04	2.926243e+02	-1.204788e+18	1.669859e-01	