 TITLE = "Edge Error"
 VARIABLES = "X", "Y","Estimate1" 
 ZONE T = "Domain", I=       44416  DATAPACKING=POINT, ZONETYPE=ORDERED
   115.652200000000        14.6581895000000       6.319437848413087E-004
   115.660109500000        14.7896123000000       1.436569849815226E-005
   115.659382000000        14.5267667000000       7.445388751759276E-006
   115.667291500000        14.6581895000000       9.708900598888015E-004
   115.652200000000        14.3953439000000       1.547730631303254E-003
   115.658654500000        14.2639211000000       6.479578380654391E-005
   115.665836500000        14.3953439000000       2.477124699895240E-003
   115.652200000000        14.1982097500000       7.738647268152016E-004
   115.658291000000        14.1324984000000       2.095159135315526E-004
   115.664745500000        14.1982097500000       1.247413312593889E-003
   115.652200000000        14.0667870000000       4.157708147554989E-004
   115.657927500000        14.0010756000000       2.456454973996664E-004
   115.664018500000        14.0667870000000       8.920794092687269E-004
   115.652200000000        13.9353642000000       1.313085041798783E-003
   115.657563500000        13.8696528000000       1.770823948599052E-003
   115.663291000000        13.9353642000000       2.259725318734147E-003
   115.652200000000        13.8039414000000       5.218250486896781E-003
   115.657200000000        13.7382300000000       4.038442222905304E-003
   115.662563500000        13.8039414000000       3.915918938860881E-003
   115.652200000000        15.9466545500000       6.472982368058459E-005
   115.663768500000        16.1119466000000       1.597495321490836E-007
   115.662854000000        15.7813627500000       5.780167001962783E-007
   115.674422500000        15.9466548000000       1.347354021334570E-004
   115.652200000000        15.6160708000000       7.531296710070574E-005
   115.661939000000        15.4507793000000       1.179827393272051E-006
   115.672593000000        15.6160712500000       1.449117839929514E-004
   115.652200000000        15.2854874000000       1.257488160842493E-004
   115.661024000000        15.1201958000000       6.903180066915079E-007
   115.670763000000        15.2854877000000       3.239190322792520E-004
   115.652200000000        14.9549040000000       1.257488160842493E-004
   115.668933500000        14.9549041000000       3.254691700357551E-004
   115.652200000000        17.3601409000000       2.331138290662736E-004
   115.668374000000        17.7762056000000       4.358564168226055E-006
   115.666071500000        16.9440761500000       1.090566865015359E-007
   115.682245500000        17.3601408500000       3.184150695108582E-004
   115.652200000000        16.5280114000000       2.331138850945384E-004
   115.677640000000        16.5280113500000       3.390565400222161E-004
   115.652200000000        19.3471326500000       1.145139694126893E-004
   115.674170000000        19.8707749000000       4.098217173053652E-006
   115.671272000000        18.8234903500000       7.444659388450510E-006
   115.693242000000        19.3471326000000       5.651855406249298E-004
   115.652200000000        18.2998480000000       5.709694260113484E-005
   115.687446000000        18.2998479500000       5.651855944836680E-004
   115.652200000000        21.8479135000000       3.046979405225599E-004
   115.681465000000        22.5069598000000       3.139902340495394E-005
   115.677817500000        21.1888673000000       2.437814782136886E-005
   115.707082500000        21.8479136000000       6.036938568018920E-004
   115.652200000000        20.5298210500000       3.046978711728176E-004
   115.699787500000        20.5298211500000       6.032514483536910E-004
   115.652200000000        24.9952586000000       3.014811253728311E-004
   115.690646000000        25.8246914000000       3.821490581725334E-005
   115.686055500000        24.1658257000000       3.029460921223414E-005
   115.724501500000        24.9952585000000       1.170508445427016E-003
   115.652200000000        23.3363928000000       2.551583275883920E-004
   115.715320500000        23.3363927000000       7.527892061273674E-004
   115.652200000000        29.4780864000000       8.671905376824078E-004
   115.702200000000        30.0000000000000       1.171116305982948E-004
   115.699311500000        28.9561728000000       1.142506102119365E-005
   115.749311500000        29.4780864000000       2.772242994270054E-003
   115.652200000000        28.4342592500000       8.671904546044312E-004
   115.696423000000        27.9123457000000       1.628258304671134E-006
   115.743534500000        28.4342592500000       2.766177683705546E-003
   115.652200000000        27.3904321000000       5.048793260761117E-004
   115.693534500000        26.8685185000000       2.963764573433513E-005
   115.737757500000        27.3904321000000       1.542279842281351E-003
   115.652200000000        26.3466049500000       3.234887626124508E-004
   115.731980500000        26.3466049500000       1.058401944757560E-003
   115.676877500000        14.7895632500000       2.138896858499035E-005
   115.674608000000        14.5267222000000       1.639450737142893E-005
   115.684194000000        14.6580959500000       3.532890726473944E-004
   115.672338500000        14.2638811000000       8.143319676242778E-005
   115.681110000000        14.3952594000000       2.248948010102507E-004
   115.671204000000        14.1324606000000       2.341126010725825E-004
   115.678797000000        14.1981319500000       9.668255419408197E-004
   115.670069500000        14.0010401000000       2.747537884986652E-004
   115.677255000000        14.0667137000000       9.668248171076332E-004
   115.668934500000        13.8696195500000       1.851803553228344E-003
   115.675713000000        13.9352954500000       2.339072434851148E-003
   115.667800000000        13.7381990000000       3.616511530072618E-003
   115.674171000000        13.8038771500000       1.360039489709651E-002
   115.688294000000        16.1118749000000       4.165767984790731E-007
   115.685440000000        15.7812970000000       7.839254419183335E-007
   115.699311500000        15.9465171000000       6.871950536635134E-005
   115.682585500000        15.4507191000000       1.307984179193191E-006
   115.695432500000        15.6159448500000       9.037737574029442E-005
   115.679731000000        15.1201412000000       8.376248357790076E-007
   115.691553500000        15.2853726000000       3.666566555401439E-004
   115.687675000000        14.9548003500000       4.443345284269871E-004
   115.702662500000        17.7761053500000       5.292039913135454E-006
   115.695478500000        16.9439901500000       2.804422166821737E-007
   115.715895500000        17.3599546500000       1.256341459370501E-003
   115.706132500000        16.5278537000000       3.492103891801403E-004
   115.720746500000        19.8706387000000       5.401208327068999E-006
   115.711704500000        18.8233720500000       8.765747874181014E-006
   115.739209000000        19.3468781500000       1.523986704824853E-003
   115.726921000000        18.2996294500000       1.581903558997527E-003
   115.743506500000        22.5067784000000       3.916770550215239E-005
   115.732126500000        21.1887086000000       3.042107783582675E-005
   115.768550500000        21.8475734000000       3.990703576450826E-004
   115.753085500000        20.5295261500000       3.980501950134744E-004
   115.772151000000        25.8244530500000       4.731496386374345E-005
   115.757828500000        24.1656157500000       3.767183039795695E-005
   115.805478000000        24.9948103000000       2.247831517333889E-003
   115.786014500000        23.3360014500000       1.709920907880078E-003
   115.808199000000        29.9996900500000       2.714737103878103E-004
   115.799187000000        28.9558808000000       1.047954571314635E-005
   115.858074500000        29.4774844500000       4.169715187640187E-003
   115.790175000000        27.9120715500000       2.265495510915680E-006
   115.845827500000        28.4336931000000       4.140939019762295E-003
   115.781163000000        26.8682623000000       3.717420840057369E-005
   115.833580500000        27.3899017500000       2.297009803766990E-003
   115.821333500000        26.3461104000000       1.665720881870350E-003
   115.695656500000        14.7893978000000       2.904310961457685E-005
   115.691660500000        14.5265720000000       2.950864658986713E-005
   115.703123000000        14.6578738500000       8.869548952009105E-004
   115.687664000000        14.2637461000000       1.016999159562089E-004
   115.698214500000        14.3950587000000       1.900011801778855E-003
   115.685666000000        14.1323332000000       1.399536771578374E-004
   115.694533000000        14.1979473500000       1.021925233703891E-003
   115.683668000000        14.0009203000000       9.815104298314842E-005
   115.692079000000        14.0665398000000       1.023255652297553E-003
   115.681669500000        13.8695073500000       6.931142745718495E-004
   115.689624500000        13.9351322000000       1.458095954081299E-003
   115.679671500000        13.7380944000000       4.659873326161724E-004
   115.687170000000        13.8037246000000       6.341629200023947E-003
   115.715761500000        16.1116329500000       7.964373021879549E-007
   115.710735000000        15.7810742000000       1.091716900134614E-006
   115.727185000000        15.9461900500000       5.354545823980400E-005
   115.705709000000        15.4505154000000       1.446008526779607E-006
   115.721011500000        15.6156447500000       5.360667380962700E-005
   115.700682500000        15.1199566000000       1.809573167801834E-006
   115.714838000000        15.2850994000000       2.840413001331787E-004
   115.708664000000        14.9545540500000       5.301150515008141E-004
   115.741064500000        17.7757670500000       6.078456991559664E-006
   115.728413000000        16.9437000500000       3.738240848417211E-007
   115.753582000000        17.3595124500000       1.996878060366978E-003
   115.738042000000        16.5274793000000       1.018026005021838E-003
   115.772910500000        19.8701791500000       6.918299513406554E-006
   115.756987500000        18.8229731000000       1.005742097127258E-005
   115.790689000000        19.3462741000000       2.043600024349301E-003
   115.771131000000        18.2991107000000       2.514268579699979E-003
   115.812990500000        22.5061663000000       4.883794669196121E-005
   115.792950500000        21.1881727500000       3.791306474276157E-005
   115.837390500000        21.8467656500000       4.000112760573583E-004
   115.812775500000        20.5288257500000       6.212239033460518E-004
   115.863433000000        25.8236489000000       5.824141028532892E-005
   115.838211500000        24.1649076500000       4.676650712106142E-005
   115.896166500000        24.9937462500000       3.016115557540526E-003
   115.865187500000        23.3350725000000       2.200671564038165E-003
   115.926914000000        29.9986442500000       3.356775926976252E-004
   115.911043500000        28.9548954500000       1.339452436738663E-005
   115.979883000000        29.4760552500000       4.324592847288506E-003
   115.895173500000        27.9111465500000       4.821457440684053E-006
   115.960389500000        28.4323489000000       4.275482264208017E-003
   115.879303500000        26.8673977500000       4.631454387260216E-005
   115.940896500000        27.3886425500000       2.584006966255996E-003
   115.921403000000        26.3449362500000       2.008054199691556E-003
   115.716687500000        14.7890739000000       3.228378778717894E-005
   115.710757500000        14.5262778500000       4.106171323454711E-005
   115.724322000000        14.6574779000000       3.342479984852299E-004
   115.704827000000        14.2634817500000       1.288351250685827E-004
   115.717370000000        14.3947009000000       1.848609624261065E-003
   115.701862000000        14.1320838000000       1.524934278161511E-005
   115.712156000000        14.1976182000000       1.069068997261485E-003
   115.698897000000        14.0006857500000       1.088354631757173E-004
   115.708680000000        14.0662297500000       1.048942911373177E-003
   115.695931500000        13.8692877000000       6.924964628375008E-004
   115.705204000000        13.9348412500000       1.177730513050266E-003
   115.692966500000        13.7378896500000       5.263905915343073E-004
   115.701728000000        13.8034527500000       1.317926255817553E-003
   115.746522000000        16.1111592000000       1.134694525131601E-006
   115.739063500000        15.7806379000000       1.387804291754370E-006
   115.758400500000        15.9456070500000       8.158653955203288E-005
   115.731605000000        15.4501165500000       1.449393420268878E-006
   115.749657000000        15.6151097000000       8.163006440830310E-005
   115.724146000000        15.1195952000000       4.075366085944254E-006
   115.740913000000        15.2846123500000       6.743032807711582E-005
   115.732169500000        14.9541150500000       2.074642685264088E-004
   115.784071000000        17.7751047000000       6.909890697120229E-006
   115.765296500000        16.9431319500000       2.650077615665029E-007
   115.795785500000        17.3587242000000       2.288278485096634E-003
   115.773776500000        16.5268118500000       1.333264475696069E-003
   115.831329000000        19.8692794000000       8.708899695414585E-006
   115.807700000000        18.8221920500000       1.158434325085241E-005
   115.848340000000        19.3451973500000       2.180282010670121E-003
   115.820640000000        18.2981860500000       2.881364964611919E-003
   115.890806000000        22.5049678500000       6.096211168031332E-005
   115.861067500000        21.1871236500000       4.702222868471037E-005
   115.914483000000        21.8453258500000       3.694591170213005E-004
   115.879621000000        20.5275773000000       7.190286871077902E-004
   115.965660500000        25.8220744500000       7.202101327141525E-005
   115.928233500000        24.1635211500000       5.846939648576291E-005
   115.997727500000        24.9918493500000       3.497292141843337E-003
   115.953852000000        23.3334165000000       2.430056351881656E-003
   116.059864000000        29.9965966000000       3.760611970381895E-004
   116.036313000000        28.9529661000000       3.457510945575738E-005
   116.116294000000        29.4735074500000       3.492113151704503E-003
   116.012762500000        27.9093355000000       5.605957263940141E-006
   116.088686000000        28.4299527000000       3.438776154269514E-003
   115.989211500000        26.8657050000000       5.725267837833227E-005
   116.061077500000        27.3863979500000       2.731426453938944E-003
   116.033469000000        26.3428432000000       2.351475600799279E-003
   115.740239000000        14.7885372500000       3.318249151159688E-005
   115.732143000000        14.5257905500000       4.632696326062886E-005
   115.748060000000        14.6568499000000       4.872740484301435E-004
   115.724047000000        14.2630438000000       1.624093847846582E-004
   115.738820000000        14.3941334500000       1.730890672866208E-003
   115.719999000000        14.1316705000000       3.789278367626933E-005
   115.731890000000        14.1970961000000       1.102830033786992E-003
   115.715951000000        14.0002971500000       5.814266226563852E-005
   115.727270000000        14.0657379000000       1.206394655158524E-003
   115.711903000000        13.8689238000000       1.378275084445481E-004
   115.722650000000        13.9343797000000       1.436915920317112E-003
   115.707854500000        13.7375504000000       1.040009347780203E-004
   115.718029500000        13.8030214500000       1.436925434056396E-003
   115.780969000000        16.1103742500000       1.216675647625871E-006
   115.770787000000        15.7799150500000       1.218750474141108E-006
   115.793355500000        15.9446822500000       1.826300206930819E-004
   115.760604000000        15.4494557500000       3.426842673189431E-006
   115.781734000000        15.6142611000000       2.069512218311778E-004
   115.750421500000        15.1189965000000       4.651077468245501E-006
   115.770112500000        15.2838399000000       2.069510935322717E-004
   115.758491000000        14.9534187000000       2.915740189703162E-004
   115.832231500000        17.7740073000000       7.818583739665684E-006
   115.806600500000        16.9421907500000       1.294703616252166E-007
   115.843046500000        17.3574738500000       2.207361806005560E-003
   115.813793000000        16.5257531500000       1.318434862456460E-003
   115.896748000000        19.8677887500000       1.056851860057175E-005
   115.864490000000        18.8208980500000       1.340051965585124E-005
   115.912898000000        19.3434894500000       2.175327332106170E-003
   115.876081500000        18.2967193000000       2.780009995769660E-003
   115.977947000000        22.5029822500000       7.571817989945771E-005
   115.937347500000        21.1853855000000       5.773138682631400E-005
   116.000811500000        21.8430419000000       5.684555256068388E-004
   115.954474500000        20.5255969500000       8.801635435776548E-004
   116.080139500000        25.8194659000000       8.931052761150104E-005
   116.029043500000        24.1612240500000       7.316345784501588E-005
   116.111455500000        24.9888406000000       4.059634523329532E-003
   116.053138500000        23.3307898000000       2.851603273718801E-003
   116.208746500000        29.9932041000000       3.565866539690590E-004
   116.176595000000        28.9497695500000       6.466195159649032E-005
   116.269047500000        29.4694662000000       2.317514113362834E-003
   116.144443000000        27.9063350000000       4.957147052086115E-006
   116.232352000000        28.4261518500000       2.766921894927193E-003
   116.112291000000        26.8629004500000       7.114649689028638E-005
   116.195656500000        27.3828375000000       2.770283793550606E-003
   116.158961500000        26.3395231500000       2.700196892121953E-003
   115.766610500000        14.7877181500000       2.325869495212588E-005
   115.756089500000        14.5250468000000       4.890402671651044E-005
   115.774640000000        14.6559150500000       1.191316506572895E-003
   115.745568500000        14.2623753500000       2.075214783612076E-004
   115.762838000000        14.3932887000000       1.282671748059075E-003
   115.740308000000        14.1310397000000       4.088187613706717E-005
   115.753986500000        14.1963189500000       1.125390921962999E-003
   115.735047000000        13.9997040000000       1.248662729639620E-004
   115.748085000000        14.0650058000000       1.474068239647073E-003
   115.729786500000        13.8683683000000       2.080576672960742E-004
   115.742183500000        13.9336926000000       1.759633613962330E-003
   115.724525500000        13.7370326000000       1.703270040902958E-004
   115.736282500000        13.8023794500000       1.759632325459243E-003
   115.819541500000        16.1091762000000       1.024298179316484E-006
   115.806309000000        15.7788117000000       2.646121527048246E-007
   115.832495000000        15.9433056500000       4.047219126750622E-004
   115.793076000000        15.4484472000000       8.185128744989486E-006
   115.817651000000        15.6129978000000       5.204210981454018E-004
   115.779843500000        15.1180826500000       1.544719517123937E-006
   115.802807000000        15.2826899500000       6.448761865411875E-004
   115.787963000000        14.9523821000000       7.721064501853782E-004
   115.886159500000        17.7723323000000       8.155491883429184E-006
   115.852850500000        16.9407542500000       1.059368561902710E-006
   115.895963500000        17.3556127000000       2.552966230618084E-003
   115.858599000000        16.5241773000000       1.445255074924548E-003
   115.970001000000        19.8655135000000       1.213225089574503E-005
   115.928080500000        18.8189229500000       1.461985711301213E-005
   115.985183500000        19.3409470000000       2.579095609497303E-003
   115.938158500000        18.2945359500000       3.215556401346946E-003
   116.075523500000        22.4999515000000       9.403850311995996E-005
   116.022762000000        21.1827325000000       7.034218183124171E-005
   116.097474000000        21.8396421000000       6.372522682948216E-004
   116.038288500000        20.5226490500000       1.125032975303940E-003
   116.208327000000        25.8154844000000       1.122831206525628E-004
   116.141925000000        24.1577179500000       9.273414816840776E-005
   116.238796500000        24.9843617500000       4.379442403295881E-003
   116.164310000000        23.3268796500000       3.068209741408234E-003
   116.375457500000        29.9880260500000       2.485326346141946E-004
   116.333675000000        28.9448906000000       8.347802476768702E-005
   116.440085000000        29.4634504500000       1.336800748299968E-003
   116.291892000000        27.9017552000000       6.446671288414803E-006
   116.393215000000        28.4204939500000       2.261827105721906E-003
   116.250109500000        26.8586198000000       9.129782037852324E-005
   116.346345000000        27.3775375000000       2.651875007540155E-003
   116.299475000000        26.3345810500000       2.755726560778599E-003
   115.796137000000        14.7865273000000       1.264711289851523E-005
   115.782901000000        14.5239654500000       3.877850501135686E-005
   115.804398000000        14.6545777000000       1.416750657381172E-003
   115.769664500000        14.2614035500000       2.831628812445187E-004
   115.789727500000        14.3920803000000       1.561685320328774E-003
   115.763046000000        14.1301226500000       1.831418859326947E-004
   115.778724000000        14.1952072500000       1.143674051089984E-003
   115.756427500000        13.9988417000000       2.883715413627891E-004
   115.771388500000        14.0639585500000       1.832076044707178E-003
   115.749809500000        13.8675607500000       3.099979812490629E-004
   115.764053500000        13.9327098500000       2.204556915712623E-003
   115.743191000000        13.7362798000000       1.890861288210351E-004
   115.756718000000        13.8014611000000       2.204573880679303E-003
   115.862728500000        16.1074344500000       3.640648898121469E-006
   115.846080500000        15.7772076500000       2.226760159549889E-006
   115.876314000000        15.9413364500000       3.836295945109215E-004
   115.829433000000        15.4469809000000       8.163302041968093E-006
   115.857862500000        15.6111907500000       6.325305381884576E-004
   115.812785000000        15.1167541000000       2.852035921953192E-006
   115.839411000000        15.2810450500000       8.284860497709607E-004
   115.820959000000        14.9508993000000       9.130155973556519E-004
   115.946538500000        17.7698971500000       7.224321254043154E-006
   115.904633000000        16.9386658000000       2.534138475347526E-006
   115.955208000000        17.3529502500000       1.859619981419142E-003
   115.908762500000        16.5219229500000       1.030157207178442E-003
   116.052017500000        19.8622056500000       1.366967888333140E-005
   115.999278000000        18.8160514500000       1.614455225488160E-005
   116.066112000000        19.3373101000000       1.862814680826353E-003
   116.007658000000        18.2914126500000       2.345050277581753E-003
   116.184772500000        22.4955453500000       1.171254224617944E-004
   116.118395000000        21.1788755500000       8.216394535681185E-005
   116.205693500000        21.8347788000000       6.774973469901563E-004
   116.132124000000        20.5184321500000       7.771324559360071E-004
   116.351849000000        25.8096959500000       1.449185563332786E-004
   116.268310500000        24.1526206500000       1.202997844286698E-004
   116.381363000000        24.9779548500000       3.743867567326074E-003
   116.288773000000        23.3212863500000       2.375979827571555E-003
   116.562111500000        29.9804980000000       3.223884545769576E-004
   116.509546000000        28.9377975000000       1.875164666252383E-004
   116.631572500000        29.4548450500000       1.169138989077300E-003
   116.456980500000        27.8950969500000       1.572116543198272E-005
   116.573311500000        28.4124005000000       1.459251290670589E-003
   116.404414500000        26.8523965000000       1.207885091161746E-004
   116.515050000000        27.3699559500000       1.964479536463083E-003
   116.456788500000        26.3275114000000       2.355796400902151E-003
   115.829191000000        14.7848507000000       1.773778964893440E-005
   115.812915500000        14.5224430000000       8.357341612477294E-005
   115.837708500000        14.6527160000000       6.867991182406110E-004
   115.796639000000        14.2600353500000       3.059660814247708E-004
   115.819827000000        14.3903980500000       2.940855247084079E-003
   115.788500500000        14.1288315000000       2.027218386762980E-004
   115.806415500000        14.1936596000000       1.470428148095049E-003
   115.780362500000        13.9976276500000       3.156666111266420E-004
   115.797474500000        14.0625006000000       2.106808141715577E-003
   115.772225000000        13.8664238000000       3.412766051510790E-004
   115.788534000000        13.9313416000000       2.300209416523930E-003
   115.764086500000        13.7352199000000       2.038760419356422E-004
   115.779593500000        13.8001826000000       2.300163740570558E-003
   115.911074500000        16.1049822000000       5.268910970760523E-006
   115.890603500000        15.7749493500000       7.515184304707849E-006
   115.925364000000        15.9385951000000       5.345067595130069E-004
   115.870133000000        15.4449164500000       7.690053629993566E-006
   115.902874000000        15.6086750500000       1.027195252782849E-003
   115.849662000000        15.1148836000000       3.099720511338709E-006
   115.880384000000        15.2787550000000       1.027194943832611E-003
   115.857894000000        14.9488350000000       8.286244785955841E-004
   116.014130500000        17.7664686500000       7.860515637099387E-007
   115.962602500000        16.9357254500000       1.176542913053774E-005
   116.021525000000        17.3492438500000       5.199053341716411E-003
   115.964914500000        16.5187847000000       3.265607254945119E-003
   116.143832500000        19.8575485500000       6.660246941555116E-006
   116.078981500000        18.8120086500000       7.198425751818608E-006
   116.156702000000        19.3322471000000       5.482508263391566E-003
   116.085454000000        18.2870646500000       6.546143637918052E-003
   116.307073000000        22.4893419000000       1.429560966321077E-004
   116.225453000000        21.1734452500000       9.279005925998999E-005
   116.326832500000        21.8280083500000       1.021329152657780E-003
   116.237161500000        20.5125616500000       3.040614623660814E-003
   116.512517500000        25.8015464000000       1.950582076340605E-004
   116.409795000000        24.1454441500000       1.603494030762482E-004
   116.540949500000        24.9690357000000       1.789626649502077E-003
   116.428095000000        23.3134997000000       1.460126478333722E-003
   116.771065000000        29.9698992500000       6.602998676957242E-004
   116.706428000000        28.9278110500000       6.090258336730470E-004
   116.845920500000        29.4428652500000       1.262045262754573E-003
   116.641791500000        27.8857228500000       2.177185944103664E-005
   116.774908000000        28.4011334000000       1.324288941490799E-003
   116.577154000000        26.8436346500000       1.701501878369201E-004
   116.703895500000        27.3594015500000       1.185758117770783E-003
   116.632883000000        26.3176696500000       1.126105966542882E-003
   115.866187000000        14.7825431500000       2.102410468241502E-005
   115.846509000000        14.5203476500000       1.275092456536561E-004
   115.874987500000        14.6501748000000       8.735052184727458E-004
   115.826830500000        14.2581522000000       3.116957429783390E-004
   115.853512500000        14.3881018000000       3.107912600260976E-003
   115.816991500000        14.1270544000000       8.588754877152545E-004
   115.837406500000        14.1915470000000       1.824828391623195E-003
   115.807152000000        13.9959566500000       2.405228503961272E-004
   115.826669000000        14.0605104500000       2.745057176212601E-003
   115.797313500000        13.8648589000000       1.072589621278970E-004
   115.815931500000        13.9294739500000       2.538217912323096E-003
   115.787474000000        13.7337611500000       1.102315454949284E-004
   115.805194000000        13.7984374500000       2.691796792252797E-003
   115.965186000000        16.1016070500000       5.850400344008863E-006
   115.940436500000        15.7718411000000       4.177745659771985E-006
   115.980258500000        15.9348530500000       1.266733632393154E-003
   115.915686500000        15.4420750500000       6.781548519748470E-006
   115.953249000000        15.6052411000000       8.250383177107825E-004
   115.890937000000        15.1123091000000       3.663980850699199E-006
   115.926239500000        15.2756291500000       7.224367095692233E-004
   115.899230000000        14.9460172500000       6.095403201283188E-004
   116.089783500000        17.7617499000000       6.998567593572562E-006
   116.027485000000        16.9316785000000       2.862523809080557E-006
   116.095743500000        17.3441845500000       3.273304381316261E-003
   116.027756500000        16.5145008500000       3.273304381316261E-003
   116.246597000000        19.8511387500000       3.514631614411743E-006
   116.168190500000        18.8064443500000       6.297984371502785E-006