 TITLE = "Adapted Mesh"
 VARIABLES = "X", "Y"
 ZONE T = "Domain", N=        5922 E=       11262 
 DATAPACKING=POINT, ZONETYPE=FEQUADRILATERAL
   115.652200000000        13.7382300000000     
   115.652200000000        14.7896122899470     
   115.652200000000        16.1119466301946     
   115.652200000000        17.7762056196718     
   115.652200000000        19.8707748919024     
   115.652200000000        22.5069598288973     
   115.652200000000        25.8246913631930     
   115.652200000000        30.0000000000000     
   115.662200000000        13.7382299995359     
   115.668018825858        14.7896122892128     
   115.675337223113        16.1119466291208     
   115.684547985713        17.7762056181705     
   115.696140280880        19.8707748898631     
   115.710730121936        22.5069598261809     
   115.729091951041        25.8246913596245     
   115.752200000000        29.9999999860769     
   115.673399828472        13.7381680140919     
   115.685735639483        14.7895142355183     
   115.701250516132        16.1118032120201     
   115.720777174854        17.7760051077507     
   115.745352641767        19.8705025240864     
   115.776282854550        22.5065970246292     
   115.815209617297        25.8242147414576     
   115.864198284721        29.9993801212521     
   115.685942965079        13.7380208405238     
   115.705577408853        14.7892814242136     
   115.730271851153        16.1114626932616     
   115.761351695230        17.7755290309168     
   115.800467536330        19.8698558393064     
   115.849697986057        22.5057356159590     
   115.911656241885        25.8230830951912     
   115.989629650791        29.9979083739534     
   115.699989795288        13.7377584865577     
   115.727797844947        14.7888664110430     
   115.762772315610        16.1108556790542     
   115.806790361521        17.7746803687072     
   115.862189702815        19.8687030486325     
   115.931914254552        22.5042000550299     
   116.019665059956        25.8210658043834     
   116.130097952880        29.9952848212987     
   115.715719485094        13.7373423420753     
   115.752680367332        14.7882081193327     
   115.799166449865        16.1098928363082     
   115.857672739635        17.7733342251701     
   115.931306401640        19.8668744981234     
   116.023980320791        22.5017643563534     
   116.140613713805        25.8178659883049     
   116.287394850944        29.9911233619440     
   115.733332011404        13.7367228763120     
   115.780541315993        14.7872281972284     
   115.839916944947        16.1084595645914     
   115.914645714580        17.7713303782630     
   116.008696336946        19.8641525482116     
   116.127066652044        22.4981386157658     
   116.276039864877        25.8131027952463     
   116.463520114043        29.9849286880627     
   115.753050336998        13.7358367414360     
   115.811733391872        14.7858264358984     
   115.885539674818        16.1064092946166     
   115.978430526045        17.7684639105169     
   116.095339213459        19.8602588467511     
   116.242478252190        22.4929520576442     
   116.427657917501        25.8062891313764     
   116.660703369991        29.9760673211394     
   115.775122705272        13.7346031340164     
   115.846649286874        14.7838750138021     
   115.936609005763        16.1035550696879     
   116.049830191411        17.7644734391160     
   116.192325819631        19.8548383412030     
   116.371668092851        22.4857317385317     
   116.597376663580        25.7968036833565     
   116.881427052747        29.9637312266430     
   115.799825009498        13.7329192305196     
   115.885725431758        14.7812112761823     
   115.993763278197        16.0996589847086     
   116.129737169839        17.7590263506510     
   116.300868438246        19.8474392220816     
   116.516250980708        22.4758758310459     
   116.787317500302        25.7838558209852     
   117.128450095023        29.9468921689925     
   115.827463161390        13.7306544701587     
   115.929445742940        14.7776286912037     
   116.057710286885        16.0944189582813     
   116.219141024111        17.7517003072869     
   116.422311253975        19.8374878016325     
   116.678017420766        22.4626201613250     
   116.999832642535        25.7664416369102     
   117.404831613976        29.9242445400459     
   397.830439846862        2.24978723034018     
   3.04526141196529        32.9348905110068     
   115.760951918697        13.6607784480217     
   115.777152198365        13.7183699517019     
   115.846525019839        13.7268087023746     
   116.275966596689        13.4520213969174     
   115.901633049028        13.6018613937713     
   115.870336834085        13.6617329510105     
   115.922975666959        13.7554898698304     
   116.135235367343        13.5493940141484     
   115.999160712588        13.5469764965929     
   115.907807956609        13.7033560632797     
   116.015054315920        13.8541465051815     
   116.003740621249        13.6355410109816     
   115.928179336683        13.4014673958120     
   116.030385766046        13.7334958852614     
   117.691140929788        10.6994234548246     
   115.871482381705        13.5193262236030     
   116.084603543668        13.4410153034314     
   116.156109869269        13.8022911753565     
   118.019710331321        11.6969667153411     
   118.241072844144        10.2696853538194     
   116.861150145847        12.4264109556604     
   117.184744210961        11.3336023558274     
   117.595606438073        9.89584826872361     
   116.467275252533        12.2835716806568     
   116.751177787871        13.0846903878016     
   115.993227331004        13.2641223895796     
   116.410914824950        13.0112961754508     
   116.188171147259        13.6619134492789     
   119.464877481172        10.6555219836193     
   117.377808044408        11.7977021361796     
   116.749371954032        10.7143274520258     
   116.719556512825        11.9032335303603     
   116.198623702307        14.0060312709888     
   117.278623231992        8.82525121887438     
   116.288966704471        13.2773625010162     
   116.109730506608        12.5386011005632     
   116.094224181743        12.9672228118023     
   117.433519012295        12.7095478441470     
   121.839205918858        11.6391202823516     
   120.931148794812        9.18353457305823     
   116.289083569564        11.4699803819641     
   122.546571323784        10.2491743827575     
   116.373339363214        13.7564092964507     
   116.211011533674        9.88285839469644     
   118.553909393852        9.05202928497061     
   116.417106140560        12.7081292562530     
   12.9567832337285        20.9537393699488     
   18.0423604511373        18.9201782987874     
   13.9447211117406        15.3307489507786     
   23.0295441048746        17.3709785517119     
   19.5935262598368        13.2272964601407     
   119.156369261448        12.7240778349669     
   121.818234926309        13.6413589203309     
   121.705585279904        15.6868942479684     
   125.586606529835        12.6063896901562     
   125.860317781770        18.2916686130460     
   388.361228186290        15.7742307808268     
   383.284738208662        15.9682265018272     
   386.576745532597        12.9109205799493     
   381.055376428636        11.9627360018990     
   378.470395717327        16.7598198189933     
   376.266248944371        12.6928736152674     
   373.554024897836        17.0906450664456     
   371.403989150204        12.8660503556766     
   368.595207146180        17.1671589086507     
   366.450957357191        12.8887114843052     
   363.614030697038        17.1690483252726     
   361.466274318292        12.8795086841583     
   358.624472517549        17.1589669614153     
   356.473321077674        12.8696122724762     
   353.632178853426        17.1515276406785     
   351.478597915796        12.8638917347499     
   348.639050447941        17.1476908229927     
   346.483552832495        12.8612217535031     
   343.645683915906        17.1459998004548     
   341.488535398823        12.8600316974273     
   338.652357655115        17.1451625478003     
   336.494068890011        12.8588070538416     
   333.659521794441        17.1437091578027     
   331.502086348697        12.8538260767380     
   328.667254288674        17.1383154520220     
   326.516656400603        12.8328696985327     
   323.663109183405        17.1270346908049     
   321.531231398011        12.7684897519126     
   318.549699736872        17.1544920761789     
   316.466735439292        12.6271160443890     
   312.875046031277        17.5026114900719     
   311.175558173719        12.3400672061495     
   307.953846307839        17.3839018120107     
   305.799091570821        12.9149613243345     
   303.637976899139        17.0939709578577     
   301.439453463710        12.6433689428677     
   298.889451848383        17.1780930150569     
   295.867135394078        13.8336608669126     
   294.056070660854        17.2525756940025     
   291.507349931908        12.6791251603711     
   289.499279051153        16.7342931676376     
   285.937626814383        12.7118996565073     
   284.221750891753        17.1183114119851     
   281.661432818676        12.4617492456000     
   279.228680070186        15.8606209300990     
   276.626953049036        12.4302962408660     
   275.495426334240        17.1852536834968     
   271.722368896754        12.6610835078007     
   269.897572218956        16.5029303760153     
   266.575139844781        12.6795821375622     
   264.422618470882        16.7604114054496     
   261.384347019768        13.5326356870611     
   259.283051593631        16.9628931303134     
   256.435740537735        12.7557171379536     
   255.351321061477        16.7263781624271     
   251.649998559651        12.8935643645283     
   249.187299447381        16.2957407366912     
   246.268832637679        12.7728906216590     
   243.577087216991        17.7772543841995     
   241.079571153824        13.4838665403445     
   238.780459388741        17.3055760365564     
   236.825358593693        12.6352560052235     
   234.502247395199        16.8871757404303     
   231.733108112627        12.5345962592133     
   229.229910973345        16.6417317571057     
   226.123351850663        13.0655981162632     
   223.112184325026        17.6732219984162     
   220.548229613375        13.4665676240805     
   219.014323194283        16.9796940197082     
   216.904299123476        12.5883506144942     
   214.239712243122        17.1089317897429     
   211.271657458832        12.9384354845708     
   208.877301308234        17.4946288926410     
   207.041786150023        12.5104838353196     
   203.005618464914        17.4861231574359     
   201.733708299889        12.7516085744630     
   197.743774101576        17.4972206467273     
   196.411285895091        12.8112607449617     
   193.615689695828        16.8215832192536     
   191.185568566023        12.7596218178991     
   188.546975827264        17.1072656851334     
   186.796640944635        12.7821161232743     
   183.139278779725        17.4003837241313     
   181.784094735802        13.1271241617803     
   178.910943297133        16.6019951402426     
   177.520602496279        14.2746207286870     
   173.932010968891        17.3952135317306     
   171.520170762007        14.0969576655540     
   168.717284740426        18.7742803116342     
   167.098080037641        12.8898296949402     
   164.353549985445        17.1166042327289     
   162.293370250030        12.3801131456744     
   160.283050183878        16.1409006606824     
   157.539490106092        11.5462672737015     
   154.722645058637        16.2489284853108     
   151.277325600728        13.8930030218833     
   147.445541565908        18.3893081656148     
   145.998630713338        14.3336138111533     
   142.433019609823        17.7666219176758     
   141.540831702945        12.2849063243319     
   137.417725310139        12.8174175081072     
   132.774175596073        13.4943698343233     
   116.624419443769        13.4949114485211     
   122.037270339600        7.40310433693470     
   117.892122949146        7.68632554968832     
   114.118298544760        10.2178242277110     
   115.704466031609        12.8403037714228     
   115.629084038012        10.9957962298334     
   112.962099057147        7.99705256932706     
   108.529216188033        8.35775107228962     
   111.895640381718        9.86180611050684     
   100.358832499396        5.53765808889156     
   32.2201842330402        11.2076842228716     
   29.6989112246699        13.4821139431370     
   27.4218938171791        16.0363936226692     
   24.5851698945704        13.4189805301750     
   13.5167843082999        11.3306079372836     
   7.59732758806767        27.7006269722534     
   8.20658728176488        23.0240572072483     
   12.1457536380747        26.0129058516511     
   17.0976476425742        24.1894154291556     
   8.71915811594272        17.9799669412011     
   22.1670529865075        22.2196956339393     
   118.653136504385        14.7534487724880     
   120.553231445252        16.3307534439878     
   121.815737753592        18.2015243033144     
   122.329475281112        21.9536419914509     
   126.786980998985        23.1889769933627     
   392.574833854148        19.5745741280807     
   386.135874585913        19.6794098324921     
   392.476937973985        15.2724520066330     
   391.138824889004        9.86377232789661     
   384.786934229985        8.39295070785237     
   380.769512256555        20.8828340933141     
   378.695839589342        8.54251589175577     
   375.733094282910        21.3155982133275     
   374.154587171864        8.59608309108689     
   370.746124720783        21.4350402064564     
   369.275931287796        8.60622297043052     
   365.762007678154        21.4514745701224     
   364.306809297205        8.59647901589756     
   360.774589999645        21.4449452835565     
   359.315213387241        8.58576235697483     
   355.784677868328        21.4376942540229     
   354.319101962298        8.57908063615345     
   350.793557068798        21.4334339690505     
   349.322352497396        8.57577127478553     
   345.801957667761        21.4314299239665     
   344.325607332752        8.57431387585173     
   340.810208750002        21.4305778887931     
   339.329205198732        8.57342607967507     
   335.818498053436        21.4300498903445     
   334.334731404333        8.57086380580964     
   330.826868423758        21.4288922484710     
   329.349044491758        8.55812834685904     
   325.832132514572        21.4272967455974     
   324.395814862156        8.50556097144844     
   320.806936451961        21.4456271484955     
   319.541141799160        8.32999608482340     
   315.649234919766        21.6047839368435     
   314.884824057368        7.77682900816126     
   310.345632469827        22.2325612464480     
   308.837108702276        8.77598256328212     
   305.924267037970        21.5730280514926     
   304.214846702036        7.47063523303584     
   301.718138937352        21.1589325843884     
   299.069110697116        9.21194076565782     
   297.092970016296        21.4595626473518     
   293.799794515961        8.97162265500583     
   292.259050801407        21.4583483215839     
   289.564242474099        7.77577839830002     
   287.562900150500        21.3137334525045     
   283.248541822446        8.84976347371647     
   280.551297378449        21.0972329060057     
   280.512481579059        6.20953674386789     
   274.758218749308        21.8974603750629     
   273.466100832522        8.34732498043731     
   270.122757943453        22.1137674091037     
   268.639209916308        8.29767067504227     
   265.301017116666        22.5398157399638     
   263.828123041746        8.30481600816270     
   261.673739612698        21.1298452716991     
   258.633615993205        8.72451519008635     
   255.384559883391        21.4541424552772     
   254.700854632094        7.84081836291974     
   250.737533901699        20.8846176787103     
   249.350138402951        9.07643819658952     
   246.101664708573        21.6710643339880     
   244.337389644256        8.81993329993293     
   241.564242065505        22.6498975452010     
   239.256754611409        8.65651877136876     
   236.225073899872        21.6216635997406     
   234.592356697591        8.30201084731623     
   232.178499947364        20.9364479591897     
   230.285295028633        7.71664830662975     
   227.571829079838        21.1197028841801     
   224.026815164467        8.32374471818837     
   221.653083534663        21.4139256858019     
   218.032785657784        9.34863033235939     
   217.645287783878        20.7799910106356     
   213.226262737613        9.08145538354375     
   211.259106394827        21.7878606740871     
   209.888823949492        8.48682790013994     
   206.361037695040        21.5032409480831     
   204.169539349629        8.94354837092895     
   201.993254131117        20.7137469905443     
   199.960325564702        7.91741929063950     
   196.168440445018        21.1494423455773     
   194.100812124928        8.32084845487886     
   191.147209652673        20.9581676052374     
   189.401000956410        8.66293574062930     
   186.044250373602        21.3458374212406     
   184.714222243976        9.02249425132048     
   180.943386799786        21.3267869078743     
   179.471105332115        10.1762370689060     
   175.639132269271        20.5064824102763     
   174.328057656668        8.88508465938700     
   170.622402995672        21.4589830721801     
   169.359794266868        8.76256005091135     
   165.978243312239        22.0231721407064     
   164.678538210244        7.40353112804559     
   161.465612822219        21.4988350488399     
   159.676632787519        7.75001662466267     
   156.986869223928        20.0148504878835     
   154.902317309340        8.22935877755164     
   150.937856835601        21.6813641505983     
   149.637733875061        8.79581122779365     
   145.327661500604        21.8439046172754     
   145.100540560233        8.00896150904529     
   140.662776011538        21.6915128936810     
   137.859450767081        16.5909141489820     
   139.948982402345        8.73542991229891     
   134.484403786404        9.26859753330816     
   129.692988388846        8.43029237337326     
   117.527703446434        13.7383770328787     
   124.260456142553        8.16801597042974     
   119.477784792147        6.85458372869038     
   112.787277599804        11.1830993939348     
   113.902627180125        11.5462480267696     
   115.947882773719        12.1466045062815     
   115.559300648066        7.69489350483690     
   114.779900092281        11.8780533287330     
   111.173645486844        7.78067916584522     
   110.645328501869        11.2000984994482     
   111.579556813322        11.4244895450510     
   109.636329630995        10.2131599466238     
   107.816440153388        10.3685634821919     
   106.777859186992        7.32625503039285     
   106.544773979768        9.75206673785656     
   104.972224072225        9.44434151691460     
   103.670232141870        7.90105052941921     
   100.809433601492        7.94309972591162     
   98.2088328382029        7.79482297201641     
   95.6768191206500        8.27675808727324     
   94.0011304301250        7.86047037883299     
   44.2920456523706        8.40040357870518     
   41.6285690474128        11.5246314555586     
   39.3718745614020        8.43366415559271     
   36.1637340202606        13.1652250162786     
   33.5819051479303        8.58730665731571     
   33.4258528671516        15.8226527681606     
   28.8839960442135        8.04896346592455     
   30.5879909365355        18.1177823396471     
   25.5428354463734        9.85172571129542     
   26.9314831935581        20.2787068485338     
   21.7807082886169        8.77839408591310     
   16.9669057506412        8.44975291725207     
   9.03548926686560        12.4547416397862     
   11.5643028875556        8.05921790855867     
   7.32647367748090        8.12612251463220     
   3.53589508575927        29.3551828924155     
   6.71486434161262        31.9834573168361     
   3.90197778650198        24.9961946499511     
   11.2069083866732        30.7764673256876     
   4.16418316511707        20.3514531795756     
   16.0663190483545        29.3110132836970     
   21.6007504494423        27.5586779014514     
   117.880743481187        16.7537779886135     
   117.548370850721        18.7894222096609     
   118.666286364299        20.7213956855882     
   121.020223502855        23.3306131878784     
   122.008603645441        25.4752024742052     
   393.827396181246        25.8131893830187     
   396.837053991016        27.1180107961565     
   396.552140336452        22.4740669104942     
   388.749482509870        24.2627874535993     
   396.432934583207        17.3898291218693     
   396.441196750174        3.98167710285318     
   392.212766332842        5.11645364268015     
   397.054873888509        6.81131749946764     
   387.395661798762        3.61497472325692     
   395.778639995972        12.9907625000642     
   383.093320573358        25.1630460488629     
   381.722082815717        4.88928928526019     
   377.927995564406        25.5764569704485     
   376.974159844512        4.40377671403829     
   372.905651310075        25.7017107949409     
   372.106500243226        4.32532820119987     
   367.913822597268        25.7263698670305     
   367.146707917846        4.30649583095801     
   362.926102477845        25.7254520208291     
   362.156640879548        4.29713306583433     
   357.937610702405        25.7209885513710     
   357.159446356377        4.29173450225066     
   352.948182235809        25.7178455564516     
   352.161093443424        4.28896692943313     
   347.958270022323        25.7162285084686     
   347.162669951247        4.28771202917985     
   342.968167040066        25.7155183400158     
   342.164368422329        4.28713089459375     
   337.978011616381        25.7152145007055     
   337.166753282593        4.28633252169077     
   332.987868477436        25.7149559779085     
   332.172878066075        4.28252753655902     
   327.997411910438        25.7145863334272     
   327.196789816659        4.26505323514929     
   323.002646274242        25.7178339134758     
   322.299352509888        4.20448555940889     
   317.987169132453        25.7531460201637     
   317.753231551106        4.06969786824466     
   312.964223237708        25.9094711017062     
   312.462977070107        4.92736899160775     
   308.268920675064        26.2237165805773     
   307.113953855164        3.84607289396047     
   303.949549632665        25.7788584731344     
   301.397654145240        4.55407163571591     
   299.056766594835        25.4102004009064     
   296.619429896890        4.35487850302523     
   293.622894854884        25.6954963729522     
   292.531357547313        3.63230330243902     
   288.633459701854        25.6092565155211     
   286.978807939429        4.46046795961621     
   283.449038008447        25.1002133554858     
   283.329397120165        3.11405605919232     
   278.223720868166        26.0370960968009     
   277.480029830539        3.62379494001711     
   273.364855056977        26.1902432842312     
   270.595041190667        4.48271625318087     
   268.108002916155        25.8559775091801     
   267.676464379436        3.86245825007774     
   263.790023044832        25.5289443624868     
   261.500683324646        4.37954562453740     
   257.459152617369        26.5741942403122     
   256.693239533343        4.31682453586265     
   252.508821575948        25.6670187085771     
   251.955860498552        4.36457080236857     
   246.881867002877        26.5356019563979     
   247.011839557701        3.64356474024856     
   242.455819632136        26.7301751759530     
   241.294766172597        4.62705938186101     
   238.462454967497        26.2065178277256     
   237.215101843413        4.17435364561754     
   233.994500950169        26.0443852616377     
   232.337039096565        3.95913057874458     
   228.256187035902        26.0836311372588     
   227.005238867468        3.98812335454872     
   223.628813672305        25.4798546841895     
   222.585324199824        4.29624676734384     
   217.915305495272        25.8584454849415     
   218.410116498558        3.69805269551601     
   213.979749376609        25.2811937501536     
   212.840623631489        3.30786150672938     
   207.610087704528        26.4657209606707     
   208.282586949689        4.41444673124157     
   204.342165220919        24.9604638590784     
   202.181013185837        4.10119389351060     
   198.654068914795        25.7389735813576     
   197.156209433495        4.24611960999861     
   194.388229741887        24.9428032395005     
   192.748968520918        3.81422233244380     
   188.413219764540        25.5346767808797     
   187.642909670166        4.71817381952974     
   183.199441970932        25.7059098683391     
   182.196758245119        4.75836585395803     
   177.238502898426        25.9576574126021     
   176.189031112184        5.27459258840708     
   172.339757104320        24.5052791351327     
   172.261031866824        3.75569327985111     
   169.283520426813        26.2277138907758     
   167.365733832098        3.62462950439552     
   164.432032971223        25.8921646402444     
   162.185516217983        3.73992932545895     
   158.916897617375        25.6752879398818     
   157.856404050290        3.51921719671687     
   152.917474763425        24.9642621249880     
   151.456411379118        4.29409971983175     
   147.912449535152        26.1536705943872     
   146.949581146253        3.75856035387979     
   144.116956422967        25.5485627705717     
   142.219322314754        4.53993033999309     
   138.766115207700        26.8043183198069     
   137.117596978880        4.52186079084404     
   132.880459395602        23.1584726721312     
   132.944458030770        3.81837796829298     
   117.176101560923        15.3617075419138     
   116.454833530608        13.9399735050847     
   127.505028841095        4.29431870301798     
   123.404804904735        4.31661333906696     
   113.131651182182        12.6941388372747     
   117.525661203596        4.70200688892762     
   114.280289713286        12.7862898137508     
   115.045469898179        13.0845638578639     
   112.734486742607        5.25143810185074     
   111.936333747446        12.5045418183407     
   110.740837048591        12.4119175044312     
   109.513713298734        12.1289518252309     
   108.083899748892        11.8779999896378     
   108.393742969541        4.70025795614552     
   106.538381204787        11.6691021679741     
   104.962389222646        11.3501921540136     
   103.288007147431        10.8515214434071     
   104.297895254847        3.81475419014774     
   101.298254628460        10.4011841845400     
   99.0035291211398        10.1849598743843     
   96.6726609241114        10.0672439877631     
   97.1234545032284        4.35086130540651     
   94.3580510404204        9.99040861711732     
   91.8387190015082        8.90247736658270     
   91.6762037650277        4.26071586460429     
   89.3335916609537        8.04462480794638     
   86.0212273727279        7.73786565449825     
   86.7050861939997        3.99280041130481     
   83.6206769126868        6.59646182820210     
   82.7871599630722        2.74733235805404     
   81.1430865570576        4.63716744715764     
   77.2658663132572        4.59056538684298     
   72.6848815694944        4.52967704930981     
   68.6097661900772        4.10716394833332     
   62.5655609358846        5.09714706736760     
   61.1499929053600        6.60304806595113     
   57.1842466653113        3.40141220304445     
   55.6289840966726        8.14949793634303     
   52.1203774172709        4.54356293755083     
   48.5363155246222        10.1236828196210     
   46.9106254694586        4.64966641093837     
   45.1743682192802        13.3362966295147     
   42.1365612236968        4.32799817353149     
   40.8745532304075        16.5913386293031     
   37.0721699225517        4.29173435807532     
   37.3523405226750        18.2927917082671     
   31.7756636137469        4.30999497895881     
   33.8952731670388        21.0214356421655     
   26.8521725475446        4.52144528708236     
   30.7744125383656        23.3793788784108     
   23.4360115182737        4.76724574080462     
   26.7792176387378        24.8585950092671     
   19.0653578306472        3.90496409426203     
   4.30037682266605        15.5094019618865     
   14.0164679927401        3.77545129851444     
   4.02035480697407        10.6468945993139     
   8.56733333413460        4.19300642082792     
   3.55239379462811        5.21204238818238     
   115.710033321747        13.4019357229862     
  0.000000000000000E+000  0.000000000000000E+000
  0.000000000000000E+000   36.0000000000000     
   400.000000000000        30.0000000000000     
   400.000000000000       0.000000000000000E+000
  0.000000000000000E+000   4.50000000000000     
  0.000000000000000E+000   9.00000000000000     
  0.000000000000000E+000   13.5000000000000     
  0.000000000000000E+000   18.0000000000000     
  0.000000000000000E+000   22.5000000000000     
  0.000000000000000E+000   27.0000000000000     