 TITLE = "Edge Error"
 VARIABLES = "X", "Y","Estimate1" 
 ZONE T = "Domain", I=        9657  DATAPACKING=POINT, ZONETYPE=ORDERED
   115.652200000000        14.5267667000000       1.685432800615523E-002
   115.660109500000        14.7896123000000       4.506248642715003E-005
   115.658654500000        14.2639211000000       1.535067420619755E-003
   115.666564000000        14.5267667000000       3.521818765864993E-002
   115.652200000000        14.1324983500000       1.214048089887055E-002
   115.657927500000        14.0010756000000       5.592395219053063E-003
   115.664382000000        14.1324983500000       1.878620826776037E-002
   115.652200000000        13.8696528000000       1.214048551773640E-002
   115.657200000000        13.7382300000000       1.482434797403752E-002
   115.662927500000        13.8696528000000       9.791889094831671E-002
   115.652200000000        15.7813628500000       2.018830567841543E-003
   115.663768500000        16.1119466000000       2.090226797596103E-005
   115.661939000000        15.4507793000000       1.294211061459504E-005
   115.673507500000        15.7813630500000       5.041688984594939E-003
   115.652200000000        15.1201957000000       2.119784792665356E-002
   115.669848500000        15.1201959000000       4.386947844474578E-002
   115.652200000000        17.5681734500000       7.986054671891627E-005
   115.668374000000        17.7762056000000       3.550816557450870E-006
   115.667222500000        17.3601411000000       4.239875196581828E-007
   115.683396500000        17.5681732500000       2.131577139287001E-004
   115.652200000000        17.1521087500000       2.621775904761980E-005
   115.666071500000        16.9440761500000       3.032174840670062E-006
   115.681094000000        17.1521085000000       9.155396014837576E-005
   115.652200000000        16.5280114000000       3.722165309545935E-004
   115.677640000000        16.5280113500000       8.397363918517962E-004
   115.652200000000        19.3471326500000       5.993590882318195E-004
   115.674170000000        19.8707749000000       2.219138120624514E-005
   115.671272000000        18.8234903500000       1.015738403110932E-005
   115.693242000000        19.3471326000000       1.456498331949547E-003
   115.652200000000        18.2998480000000       4.512596275738608E-004
   115.687446000000        18.2998479500000       1.135458927909525E-003
   115.652200000000        21.8479135000000       7.404365060612975E-004
   115.681465000000        22.5069598000000       7.047361881218043E-005
   115.677817500000        21.1888673000000       4.275459643464288E-005
   115.707082500000        21.8479136000000       1.648162050047684E-003
   115.652200000000        20.5298210500000       7.543419186795775E-004
   115.699787500000        20.5298211500000       1.835524505900818E-003
   115.652200000000        24.9952586000000       2.440490426241021E-003
   115.690646000000        25.8246914000000       1.462707760411200E-004
   115.686055500000        24.1658257000000       1.091452154115447E-004
   115.724501500000        24.9952585000000       8.349462635870846E-003
   115.652200000000        23.3363928000000       9.103099893662305E-004
   115.715320500000        23.3363927000000       3.944663081937396E-003
   115.652200000000        29.4780864000000       1.233021838936788E-003
   115.702200000000        30.0000000000000       1.829266493335083E-004
   115.699311500000        28.9561728000000       2.399729667182997E-004
   115.749311500000        29.4780864000000       3.817339097598686E-003
   115.652200000000        28.4342592500000       1.879776231679614E-003
   115.696423000000        27.9123457000000       1.579244059044780E-004
   115.743534500000        28.4342592500000       6.283843552756727E-003
   115.652200000000        27.3904321000000       1.908751157444152E-003
   115.693534500000        26.8685185000000       5.276554189489799E-005
   115.737757500000        27.3904321000000       6.498975668001755E-003
   115.652200000000        26.3466049500000       1.908750974583320E-003
   115.731980500000        26.3466049500000       6.499649468169133E-003
   115.676877500000        14.7895632500000       4.396164517808487E-005
   115.672338500000        14.2638811000000       1.718141111816127E-003
   115.682652000000        14.5266776500000       2.320466182565538E-002
   115.670069500000        14.0010401000000       6.258306924394331E-003
   115.678026000000        14.1324228500000       1.387420172849404E-002
   115.667800000000        13.7381990000000       1.658068140988096E-002
   115.674942000000        13.8695863000000       3.295020614380891E-002
   115.688294000000        16.1118749000000       2.430537077748543E-005
   115.682585500000        15.4507191000000       1.685088271283015E-005
   115.697372000000        15.7812309500000       4.724192395474866E-003
   115.689614500000        15.1200864500000       2.863916091702608E-002
   115.702662500000        17.7761053500000       4.374902621416305E-006
   115.699070500000        17.3600477500000       5.273212770936812E-007
   115.718336500000        17.5679798500000       2.626066045622366E-004
   115.695478500000        16.9439901500000       3.879786101394499E-006
   115.713455000000        17.1519294000000       1.313132333186304E-004
   115.706132500000        16.5278537000000       7.240237831298074E-004
   115.720746500000        19.8706387000000       2.747130895809652E-005
   115.711704500000        18.8233720500000       1.246174883215669E-005
   115.739209000000        19.3468781500000       1.498826114102251E-003
   115.726921000000        18.2996294500000       1.246303197967822E-003
   115.743506500000        22.5067784000000       8.841090195653552E-005
   115.732126500000        21.1887086000000       5.340456366091202E-005
   115.768550500000        21.8475734000000       1.322946404094020E-003
   115.753085500000        20.5295261500000       1.892138347219535E-003
   115.772151000000        25.8244530500000       1.790674136946077E-004
   115.757828500000        24.1656157500000       1.351434558498479E-004
   115.805478000000        24.9948103000000       1.497835383596729E-002
   115.786014500000        23.3360014500000       8.273483876508649E-003
   115.808199000000        29.9996900500000       3.239522166491242E-004
   115.799187000000        28.9558808000000       3.395745234346630E-004
   115.858074500000        29.4774844500000       7.623500026341159E-003
   115.790175000000        27.9120715500000       2.037799921608731E-004
   115.845827500000        28.4336931000000       1.187788264515805E-002
   115.781163000000        26.8682623000000       5.792391918415591E-005
   115.833580500000        27.3899017500000       1.186394301770880E-002
   115.821333500000        26.3461104000000       1.181123706985155E-002
   115.695656500000        14.7893978000000       6.354552165663734E-005
   115.687664000000        14.2637461000000       1.158400754667338E-003
   115.700668500000        14.5264662500000       9.538147480269423E-003
   115.683668000000        14.0009203000000       1.314976789084924E-003
   115.693306000000        14.1322435500000       1.674832074717064E-002
   115.679671500000        13.7380944000000       3.829502724669770E-003
   115.688397500000        13.8694284000000       1.674840273350715E-002
   115.715761500000        16.1116329500000       2.810620032137623E-005
   115.705709000000        15.4505154000000       2.165654805122815E-005
   115.724098500000        15.7809174000000       2.457625409639886E-003
   115.711751000000        15.1198267500000       9.000788098537188E-003
   115.741064500000        17.7757670500000       5.383395625557133E-006
   115.734739000000        17.3597335000000       6.520859716151569E-007
   115.757467000000        17.5675207000000       2.545366905282059E-004
   115.728413000000        16.9437000500000       4.870565111714863E-006
   115.749697000000        17.1515041500000       1.207371124702215E-004
   115.738042000000        16.5274793000000       5.338138050303379E-004
   115.772910500000        19.8701791500000       3.401458840945696E-005
   115.756987500000        18.8229731000000       1.527579635374624E-005
   115.790689000000        19.3462741000000       1.147821022361704E-003
   115.771131000000        18.2991107000000       1.085574433634666E-003
   115.812990500000        22.5061663000000       1.097586688573002E-004
   115.792950500000        21.1881727500000       6.703776746857852E-005
   115.837390500000        21.8467656500000       3.286118727566289E-003
   115.812775500000        20.5288257500000       1.454985060193153E-003
   115.863433000000        25.8236489000000       2.168821609458383E-004
   115.838211500000        24.1649076500000       1.651813798073815E-004
   115.896166500000        24.9937462500000       2.131740934286479E-002
   115.865187500000        23.3350725000000       1.306165934966768E-002
   115.926914000000        29.9986442500000       6.754330238779314E-004
   115.911043500000        28.9548954500000       4.834508863937913E-004
   115.979883000000        29.4760552500000       1.401347140305455E-002
   115.895173500000        27.9111465500000       2.529254484319933E-004
   115.960389500000        28.4323489000000       1.861281155539860E-002
   115.879303500000        26.8673977500000       6.014208218689989E-005
   115.940896500000        27.3886425500000       1.857852536609028E-002
   115.921403000000        26.3449362500000       1.691011305354003E-002
   115.716687500000        14.7890739000000       1.020818929456493E-004
   115.704827000000        14.2634817500000       3.789877372106465E-004
   115.720846000000        14.5260894000000       1.067643126797450E-002
   115.698897000000        14.0006857500000       2.117107249070833E-003
   115.710418000000        14.1319239500000       1.317689156943448E-002
   115.692966500000        13.7378896500000       2.795731795051423E-003
   115.703466000000        13.8691470000000       4.082415583091562E-002
   115.746522000000        16.1111592000000       3.239976629389580E-005
   115.731605000000        15.4501165500000       2.945430222566900E-005
   115.754028500000        15.7803583500000       1.204984978954928E-003
   115.736541500000        15.1193637000000       4.131581836574861E-003
   115.784071000000        17.7751047000000       6.586245084184412E-006
   115.774684000000        17.3591183000000       8.145360616928274E-007
   115.801288000000        17.5667023000000       2.713249613881720E-004
   115.765296500000        16.9431319500000       6.005754962426580E-006
   115.790283500000        17.1507461000000       1.192919641621797E-004
   115.773776500000        16.5268118500000       5.284409437494649E-004
   115.831329000000        19.8692794000000       4.243960847219730E-005
   115.807700000000        18.8221920500000       1.876381258446793E-005
   115.848340000000        19.3451973500000       1.227675091188661E-003
   115.820640000000        18.2981860500000       1.196217635172706E-003
   115.890806000000        22.5049678500000       1.356558170191855E-004
   115.861067500000        21.1871236500000       8.531968906157889E-005
   115.914483000000        21.8453258500000       5.024058313777215E-003
   115.879621000000        20.5275773000000       1.561903186354301E-003
   115.965660500000        25.8220744500000       2.624368801087386E-004
   115.928233500000        24.1635211500000       1.999393685396481E-004
   115.997727500000        24.9918493500000       2.581062791332487E-002
   115.953852000000        23.3334165000000       1.723844553625299E-002
   116.059864000000        29.9965966000000       1.242090255669440E-003
   116.036313000000        28.9529661000000       7.218939760513841E-004
   116.116294000000        29.4735074500000       2.005256146243554E-002
   116.012762500000        27.9093355000000       3.088726061688762E-004
   116.088686000000        28.4299527000000       2.344992489554002E-002
   115.989211500000        26.8657050000000       6.303441442358955E-005
   116.061077500000        27.3863979500000       2.336970118420102E-002
   116.033469000000        26.3428432000000       1.991207494360689E-002
   115.740239000000        14.7885372500000       1.165707016076776E-004
   115.724047000000        14.2630438000000       2.709413363277216E-004
   115.743440000000        14.5254916500000       1.175289293612702E-002
   115.715951000000        14.0002971500000       2.366982679484773E-003
   115.729580000000        14.1314170000000       1.393170909968968E-002
   115.707854500000        13.7375504000000       3.112119261086629E-003
   115.720339500000        13.8687005500000       3.234168434971151E-002
   115.780969000000        16.1103742500000       3.693033715462558E-005
   115.760604000000        15.4494557500000       3.899460693935317E-005
   115.787544500000        15.7794716500000       1.946977295455925E-003
   115.764301500000        15.1186293000000       3.869136294761835E-003
   115.832231500000        17.7740073000000       8.005663002444655E-006
   115.819416000000        17.3580990500000       1.083322103960777E-006
   115.850359500000        17.5654040500000       1.631620259882068E-004
   115.806600500000        16.9421907500000       7.218179136537409E-006
   115.835733000000        17.1495437000000       1.290730981273282E-004
   115.813793000000        16.5257531500000       3.017677400326116E-004
   115.896748000000        19.8677887500000       5.227079747951089E-005
   115.864490000000        18.8208980500000       2.282535222927015E-005
   115.912898000000        19.3434894500000       6.583829995577756E-004
   115.876081500000        18.2967193000000       6.445254542236833E-004
   115.977947000000        22.5029822500000       1.650100705920950E-004
   115.937347500000        21.1853855000000       1.054215195584130E-004
   116.000811500000        21.8430419000000       7.623097063846803E-003
   115.954474500000        20.5255969500000       1.703983997165417E-003
   116.080139500000        25.8194659000000       3.238450955309247E-004
   116.029043500000        24.1612240500000       2.407353382505841E-004
   116.111455500000        24.9888406000000       2.589717302257362E-002
   116.053138500000        23.3307898000000       2.034752014460492E-002
   116.208746500000        29.9932041000000       1.393809875945754E-003
   116.176595000000        28.9497695500000       9.603329056492794E-004
   116.269047500000        29.4694662000000       1.809316678973962E-002
   116.144443000000        27.9063350000000       3.784445103488143E-004
   116.232352000000        28.4261518500000       2.176607961558738E-002
   116.112291000000        26.8629004500000       7.385086054500631E-005
   116.195656500000        27.3828375000000       2.163136575834748E-002
   116.158961500000        26.3395231500000       1.859970107012553E-002
   115.766610500000        14.7877181500000       1.172987786039131E-004
   115.745568500000        14.2623753500000       2.536197207063296E-004
   115.768739000000        14.5246018500000       1.372322292533778E-002
   115.735047000000        13.9997040000000       3.629683527782834E-003
   115.751035500000        14.1306623500000       1.773103209929101E-002
   115.724525500000        13.7370326000000       3.890084980077473E-003
   115.739233000000        13.8680360500000       3.862431806301286E-002
   115.819541500000        16.1091762000000       4.215931837078851E-005
   115.793076000000        15.4484472000000       3.957682726173474E-005
   115.825073000000        15.7781517500000       7.465512973218231E-003
   115.795385000000        15.1175360500000       1.115907661755917E-002
   115.886159500000        17.7723323000000       9.302859837330164E-006
   115.869505000000        17.3565433000000       1.281870177083761E-006
   115.905305000000        17.5634715500000       3.947938510722559E-004
   115.852850500000        16.9407542500000       8.169164111772426E-006
   115.886622500000        17.1477538500000       2.147650364773190E-004
   115.858599000000        16.5241773000000       6.583680986880445E-004
   115.970001000000        19.8655135000000       6.449497142954932E-005
   115.928080500000        18.8189229500000       2.720082157533390E-005
   115.985183500000        19.3409470000000       1.665042095513513E-003
   115.938158500000        18.2945359500000       1.645152806978043E-003
   116.075523500000        22.4999515000000       2.093296894816941E-004
   116.022762000000        21.1827325000000       1.343284546760621E-004
   116.097474000000        21.8396421000000       6.672567627447145E-003
   116.038288500000        20.5226490500000       1.926874047456251E-003
   116.208327000000        25.8154844000000       3.981494714718831E-004
   116.141925000000        24.1577179500000       2.963209412055285E-004
   116.238796500000        24.9843617500000       2.354328082712071E-002
   116.164310000000        23.3268796500000       1.947918150672734E-002
   116.375457500000        29.9880260500000       1.556865308547466E-003
   116.333675000000        28.9448906000000       1.059221473338111E-003
   116.440085000000        29.4634504500000       7.635968039614622E-003
   116.291892000000        27.9017552000000       4.027623488409343E-004
   116.393215000000        28.4204939500000       9.448359066485274E-003
   116.250109500000        26.8586198000000       9.957399619795109E-005
   116.346345000000        27.3775375000000       1.289892497914925E-002
   116.299475000000        26.3345810500000       1.481440793579008E-002
   115.796137000000        14.7865273000000       3.201087094641913E-004
   115.769664500000        14.2614035500000       2.707179331448777E-004
   115.797062500000        14.5233290000000       1.906154205915436E-002
   115.756427500000        13.9988417000000       4.037661820180563E-003
   115.775056500000        14.1295829000000       2.120374893457589E-002
   115.743191000000        13.7362798000000       4.311828913606019E-003
   115.760385500000        13.8670854500000       4.366142885308762E-002
   115.862728500000        16.1074344500000       4.918399867148463E-005
   115.829433000000        15.4469809000000       1.764779593382541E-005
   115.867088500000        15.7762636000000       1.701243992207764E-002
   115.830185000000        15.1159721500000       2.397392056670508E-002
   115.946538500000        17.7698971500000       9.692770322603671E-006
   115.925586000000        17.3542815000000       1.795628496551570E-006
   115.966819500000        17.5607071000000       5.161382645986924E-004
   115.904633000000        16.9386658000000       9.395964684162548E-006
   115.943596500000        17.1451934500000       2.250845102104937E-004
   115.908762500000        16.5219229500000       1.618140330499059E-003
   116.052017500000        19.8622056500000       5.362532779499106E-005
   115.999278000000        18.8160514500000       2.390064909672880E-005
   116.066112000000        19.3373101000000       6.627084722748889E-003
   116.007658000000        18.2914126500000       3.686447794747257E-003
   116.184772500000        22.4955453500000       2.141807480378448E-004
   116.118395000000        21.1788755500000       1.233979627125151E-004
   116.205693500000        21.8347788000000       1.662074512507939E-002
   116.132124000000        20.5184321500000       1.158522256803767E-002
   116.351849000000        25.8096959500000       4.987518592730977E-004
   116.268310500000        24.1526206500000       3.413214918674178E-004
   116.381363000000        24.9779548500000       2.367619082074796E-002
   116.288773000000        23.3212863500000       2.360841527310170E-002
   116.562111500000        29.9804980000000       5.538457832925962E-003
   116.509546000000        28.9377975000000       3.185744262646897E-003
   116.631572500000        29.4548450500000       1.636026403527689E-002
   116.456980500000        27.8950969500000       4.982276135796894E-004
   116.573311500000        28.4124005000000       1.575437076446952E-002
   116.404414500000        26.8523965000000       1.858365552874785E-004
   116.515050000000        27.3699559500000       1.912562077233915E-003
   116.456788500000        26.3275114000000       6.822143287127655E-003
   115.829191000000        14.7848507000000       3.447014318038719E-004
   115.796639000000        14.2600353500000       9.248440616593939E-004
   115.828767500000        14.5215570500000       2.190420176696047E-002
   115.780362500000        13.9976276500000       3.737520955419921E-003
   115.801945000000        14.1280801000000       2.711711337557827E-002
   115.764086500000        13.7352199000000       3.900986383996977E-003
   115.784063500000        13.8657621000000       5.287299067836938E-002
   115.911074500000        16.1049822000000       6.572329432318505E-005
   115.870133000000        15.4449164500000       9.648642950358657E-006
   115.914119000000        15.7736350500000       4.953852527503217E-003
   115.869139000000        15.1137950000000       7.187036883932699E-003
   116.014130500000        17.7664686500000       2.756204578987897E-006
   115.988366500000        17.3510970500000       1.218347653417180E-006
   116.035677500000        17.5568586000000       2.453145356530274E-003
   115.962602500000        16.9357254500000       8.850387195914965E-006
   116.007372500000        17.1416290500000       7.203264558506077E-004
   115.964914500000        16.5187847000000       9.164411001762632E-004
   116.143832500000        19.8575485500000       4.773404975429757E-005
   116.078981500000        18.8120086500000       5.352283923714494E-006
   116.156702000000        19.3322471000000       1.557103035588535E-002
   116.085454000000        18.2870646500000       1.191668217365761E-002
   116.307073000000        22.4893419000000       3.404124992549195E-004
   116.225453000000        21.1734452500000       1.747339292801303E-004
   116.326832500000        21.8280083500000       1.832864740755692E-002
   116.237161500000        20.5125616500000       1.968630083591462E-002
   116.512517500000        25.8015464000000       5.660718464808778E-004
   116.409795000000        24.1454441500000       4.599283510843341E-004
   116.540949500000        24.9690357000000       2.854189655484335E-002
   116.428095000000        23.3134997000000       1.402620033536670E-002
   116.771065000000        29.9698992500000       2.020148705645815E-002
   116.706428000000        28.9278110500000       2.053081470676450E-002
   116.845920500000        29.4428652500000       5.642726874021049E-002
   116.641791500000        27.8857228500000       2.313485085429547E-003
   116.774908000000        28.4011334000000       9.824140065163364E-002
   116.577154000000        26.8436346500000       1.568439566778748E-004
   116.703895500000        27.3594015500000       9.223201902056646E-002
   116.632883000000        26.3176696500000       5.214200896381448E-002
   115.866187000000        14.7825431500000       3.357086467476514E-003
   115.826830500000        14.2581522000000       1.317685631253200E-003
   115.864250000000        14.5191383000000       2.925926127264448E-002
   115.807152000000        13.9959566500000       3.826436232689630E-003
   115.832037500000        14.1260287500000       3.131402249194120E-002
   115.787474000000        13.7337611500000       3.714247506797795E-003
   115.810562500000        13.8639557000000       0.118264990019197     
   115.965186000000        16.1016070500000       6.360391999346502E-005
   115.915686500000        15.4420750500000       9.394874358463584E-005
   115.966753500000        15.7700470500000       2.515490863335897E-002
   115.912734500000        15.1108232000000       2.966163472737083E-002
   116.089783500000        17.7617499000000       8.860808457984721E-006
   116.058634500000        17.3467141500000       2.931678339333720E-006
   116.112740500000        17.5516054500000       9.015818681612002E-004
   116.027485000000        16.9316785000000       9.055879933297498E-006
   116.078747000000        17.1367636000000       3.693803435336962E-004
   116.027756500000        16.5145008500000       3.485996691508348E-003
   116.246597000000        19.8511387500000       3.368499526514027E-005
   116.168190500000        18.8064443500000       7.145535129201002E-006
   116.258085500000        19.3253360000000       4.490331632185703E-003
   116.172520000000        18.2811296000000       4.281552444566742E-003
   116.443959500000        22.4808037500000       6.072289921885717E-004
   116.345278500000        21.1659712500000       1.952502259845993E-004
   116.462405500000        21.8187666500000       6.280778577727692E-003
   116.354714000000        20.5045483500000       6.034985276613830E-003
   116.692347500000        25.7903297500000       1.050531563160937E-003
   116.568153000000        24.1355667500000       9.813369720528306E-004
   116.719551000000        24.9568608000000       3.519748173060314E-002
   116.584017500000        23.3028708000000       1.149939926001974E-002
   117.004938500000        29.9553117000000       2.256945612741438E-002
   116.926790500000        28.9140662000000       2.310954857454817E-002
   117.085808500000        29.4265126500000       2.591769365713282E-002
   116.848643000000        27.8728207500000       6.547173626995874E-003
   117.000525500000        28.3857535500000       4.051162244981335E-002
   116.770495000000        26.8315752500000       3.003067570631709E-004
   116.915242500000        27.3449944500000       3.483305558692307E-002
   116.829959500000        26.3042353500000       3.062696151174109E-002
   115.907585500000        14.7794200000000       1.631223502004926E-002
   115.860614500000        14.2556034500000       6.881030253968280E-003
   115.903950000000        14.5158851500000       0.105037917765208     
   115.837129500000        13.9936951000000       6.528188478530591E-003
   115.865706500000        14.1232698000000       5.606547051205254E-002
   115.813644000000        13.7317868500000       4.688172944173741E-003
   115.840211000000        13.8615262500000       0.286797959936013     
   116.025736500000        16.0970390000000       2.409998945039548E-004
   115.966661000000        15.4382294500000       2.401544050021522E-003
   116.025644000000        15.7652214000000       7.805388614616096E-003
   115.961512000000        15.1068262500000       7.589356003376807E-002
   116.174439000000        17.7553633500000       1.386158879653226E-004
   116.137263500000        17.3407822500000       2.386577882206475E-005
   116.198962000000        17.5445401500000       2.493455031106464E-003
   116.100088000000        16.9262011500000       1.085779107979126E-005
   116.158604500000        17.1302198000000       5.474195314534956E-004
   116.098068000000        16.5087393000000       2.955291739069282E-003
   116.361589500000        19.8424635000000       6.796659530349479E-004
   116.268014500000        18.7989134500000       6.798120393972180E-005
   116.371518500000        19.3160409500000       2.230190668288952E-002
   116.269933500000        18.2731472000000       1.382030944299656E-002
   116.597134000000        22.4692480000000       3.320345195508984E-003
   116.479362000000        21.1558557500000       7.657053380421459E-004
   116.614090500000        21.8063371000000       3.143475630334298E-002
   116.486237500000        20.4937709000000       2.956089265761748E-002
   116.893575500000        25.7751487000000       2.222866890114017E-003
   116.745354500000        24.1221983500000       3.029003456224348E-003
   116.919379000000        24.9404862500000       3.498257484148979E-002
   116.758471000000        23.2885755500000       3.565324381026034E-002
   117.266641000000        29.9355683500000       2.835979320010597E-002
   117.173374500000        28.8954634500000       2.629241448139615E-002
   117.354207000000        29.4045191500000       3.007259641277500E-002
   117.080108000000        27.8553585500000       6.653574272973077E-003
   117.252957000000        28.3650684500000       0.114684995059211     
   116.986841500000        26.8152536500000       4.455904583611319E-003
   117.151707000000        27.3256177500000       0.112854071623876     
   117.050457500000        26.2861670000000       5.880740845592983E-002
   1.75994980000000        2.61153236000000       5.912311716261601E-002
  0.000000000000000E+000   2.25000000000000       1.099155316783820E-002
   1.75994980000000        4.86153236000000       1.687195141620243E-002
  0.000000000000000E+000   6.75000000000000       1.364829661563227E-002
   1.75994980000000        7.11153236000000       2.537921433021115E-002
   1.98145244500000        9.83949580000000       2.766367506790534E-002
  0.000000000000000E+000   11.2500000000000       1.364829661563227E-002
   1.98145244500000        12.0894958000000       6.167792350928111E-004
   2.11441577500000        14.5267225000000       3.950303410580507E-002
  0.000000000000000E+000   15.7500000000000       1.037720124395765E-002
   2.11441577500000        16.7767225000000       1.852967826617961E-002
  0.000000000000000E+000   20.2500000000000       8.860394721772497E-003
   2.05069465500000        21.4411783500000       1.378473445053880E-002
   2.05069465500000        19.1911783500000       2.752731062119306E-002
   1.93230045000000        26.0047172500000       5.729662095022495E-003
   1.93230045000000        23.7547172500000       1.168864374072367E-002
  0.000000000000000E+000   24.7500000000000       5.273614930756311E-003
   1.75877814500000        30.4302546000000       5.815475838937869E-003
   1.75877814500000        28.1802546000000       2.066442559368759E-002
  0.000000000000000E+000   29.2500000000000       2.663819230163289E-002
   1.51919312000000        32.2183427500000       2.308728365789746E-002