TITLE = "Visualization of the solution"
VARIABLES = "x","y","Density","Momentum_x","Momentum_y","Energy","Pressure","Temperature","Pressure_Coefficient","Mach"
ZONE NODES= 5922, ELEMENTS= 11262, DATAPACKING=POINT, ZONETYPE=FEQUADRILATERAL
1.156522e+02	1.373823e+01	1.715333e+00	1.221415e+03	6.209455e+01	1.737587e+06	3.288090e+04	3.783852e+02	-2.244504e+18	5.110949e+00	
1.156522e+02	1.478961e+01	6.225192e-03	7.353656e-01	-1.967364e+00	5.237551e+03	1.246391e+02	3.910290e+02	-2.339234e+18	2.354580e+00	
1.156522e+02	1.611195e+01	7.504072e-02	5.088655e-03	-2.431194e+01	7.021347e+04	1.691032e+03	4.402631e+02	-2.334704e+18	2.131570e+00	
1.156522e+02	1.777621e+01	8.805202e-02	6.201422e-03	-2.755162e+01	8.299367e+04	2.007513e+03	4.454533e+02	-2.333788e+18	2.046750e+00	
1.156522e+02	1.987077e+01	1.093623e-01	5.051878e-03	-3.248694e+01	1.033249e+05	2.512863e+03	4.489814e+02	-2.332327e+18	1.935654e+00	
1.156522e+02	2.250696e+01	1.754195e-01	6.109364e-03	-4.536962e+01	1.661003e+05	4.086541e+03	4.553448e+02	-2.327776e+18	1.673973e+00	
1.156522e+02	2.582469e+01	3.771353e-01	5.516823e-03	-6.629887e+01	3.576415e+05	8.964494e+03	4.650458e+02	-2.313669e+18	1.126896e+00	
1.156522e+02	3.000000e+01	7.173706e-01	4.398657e-02	-2.210522e-01	6.882238e+05	1.751137e+04	4.782874e+02	-2.288952e+18	1.988775e-03	
1.156622e+02	1.373823e+01	1.842387e+00	1.145652e+03	9.309714e+01	1.794150e+06	3.625153e+04	3.885639e+02	-2.234756e+18	4.415053e+00	
1.156680e+02	1.478961e+01	1.121719e-02	1.512476e+00	-3.512383e+00	9.455206e+03	2.246884e+02	3.912161e+02	-2.338944e+18	2.378742e+00	
1.156753e+02	1.611195e+01	7.500793e-02	5.934460e-02	-2.432136e+01	7.021297e+04	1.690898e+03	4.404203e+02	-2.334704e+18	2.132953e+00	
1.156845e+02	1.777621e+01	8.798400e-02	9.164925e-02	-2.754848e+01	8.295338e+04	2.006425e+03	4.455559e+02	-2.333792e+18	2.047873e+00	
1.156961e+02	1.987077e+01	1.094103e-01	1.512165e-01	-3.247908e+01	1.033067e+05	2.512506e+03	4.487209e+02	-2.332328e+18	1.934920e+00	
1.157107e+02	2.250696e+01	1.757289e-01	4.089374e-01	-4.535444e+01	1.660160e+05	4.084725e+03	4.543430e+02	-2.327781e+18	1.672382e+00	
1.157291e+02	2.582469e+01	3.790398e-01	3.997131e-01	-6.635199e+01	3.575556e+05	8.962621e+03	4.626226e+02	-2.313675e+18	1.125111e+00	
1.157522e+02	3.000000e+01	7.173968e-01	-2.631324e+00	-1.387815e-01	6.876720e+05	1.749715e+04	4.778831e+02	-2.288993e+18	2.325977e-02	
1.156734e+02	1.373817e+01	1.883384e+00	1.138373e+03	1.068224e+02	1.818149e+06	3.714004e+04	3.895050e+02	-2.232187e+18	4.291896e+00	
1.156857e+02	1.478951e+01	1.593344e-02	2.606875e+00	-4.902066e+00	1.383898e+04	3.285166e+02	4.026972e+02	-2.338644e+18	2.396464e+00	
1.157013e+02	1.611180e+01	7.501263e-02	1.100641e-01	-2.434197e+01	7.023995e+04	1.691420e+03	4.405289e+02	-2.334703e+18	2.134379e+00	
1.157208e+02	1.777601e+01	8.795485e-02	1.790272e-01	-2.755350e+01	8.293742e+04	2.005938e+03	4.455953e+02	-2.333793e+18	2.048867e+00	
1.157454e+02	1.987050e+01	1.095538e-01	3.132838e-01	-3.249433e+01	1.033522e+05	2.513702e+03	4.483469e+02	-2.332325e+18	1.934170e+00	
1.157763e+02	2.250660e+01	1.761118e-01	8.545754e-01	-4.534641e+01	1.659074e+05	4.082272e+03	4.530851e+02	-2.327788e+18	1.671002e+00	
1.158152e+02	2.582421e+01	3.807268e-01	8.537376e-01	-6.633888e+01	3.569913e+05	8.948739e+03	4.598698e+02	-2.313715e+18	1.123349e+00	
1.158642e+02	2.999938e+01	7.174909e-01	-5.703161e+00	-5.507374e-02	6.867630e+05	1.747344e+04	4.771766e+02	-2.289062e+18	5.037688e-02	
1.156859e+02	1.373802e+01	1.981237e+00	1.137721e+03	1.265653e+02	1.901548e+06	3.964463e+04	3.953801e+02	-2.224943e+18	4.055759e+00	
1.157056e+02	1.478928e+01	2.039012e-02	3.755224e+00	-6.197294e+00	1.817962e+04	4.311179e+02	4.129682e+02	-2.338347e+18	2.413545e+00	
1.157303e+02	1.611146e+01	7.502242e-02	1.642548e-01	-2.435487e+01	7.025566e+04	1.691725e+03	4.405508e+02	-2.334702e+18	2.135205e+00	
1.157614e+02	1.777553e+01	8.792090e-02	2.757153e-01	-2.754824e+01	8.289801e+04	2.004926e+03	4.455424e+02	-2.333796e+18	2.049448e+00	
1.158005e+02	1.986986e+01	1.097712e-01	4.929969e-01	-3.252339e+01	1.034303e+05	2.515697e+03	4.478151e+02	-2.332319e+18	1.933348e+00	
1.158497e+02	2.250574e+01	1.764914e-01	1.353857e+00	-4.533019e+01	1.656958e+05	4.077199e+03	4.515515e+02	-2.327803e+18	1.670097e+00	
1.159117e+02	2.582308e+01	3.819503e-01	1.362129e+00	-6.624707e+01	3.557789e+05	8.918492e+03	4.568576e+02	-2.313802e+18	1.122050e+00	
1.159896e+02	2.999791e+01	7.173970e-01	-9.134277e+00	6.999606e-02	6.848674e+05	1.742411e+04	4.758971e+02	-2.289204e+18	8.080294e-02	
1.157000e+02	1.373776e+01	2.059350e+00	1.174419e+03	1.450697e+02	1.978117e+06	4.132650e+04	3.966832e+02	-2.220080e+18	4.028495e+00	
1.157278e+02	1.478887e+01	2.447459e-02	4.864366e+00	-7.370623e+00	2.213838e+04	5.243421e+02	4.184548e+02	-2.338078e+18	2.434463e+00	
1.157628e+02	1.611086e+01	7.507027e-02	2.200492e-01	-2.436087e+01	7.028984e+04	1.692608e+03	4.404997e+02	-2.334699e+18	2.134533e+00	
1.158068e+02	1.777468e+01	8.787885e-02	3.823933e-01	-2.752086e+01	8.283199e+04	2.003398e+03	4.454158e+02	-2.333800e+18	2.048777e+00	
1.158622e+02	1.986870e+01	1.101108e-01	6.931419e-01	-3.257310e+01	1.035831e+05	2.519564e+03	4.471215e+02	-2.332308e+18	1.932049e+00	
1.159319e+02	2.250420e+01	1.768294e-01	1.913163e+00	-4.530432e+01	1.653634e+05	4.069019e+03	4.497871e+02	-2.327827e+18	1.669971e+00	
1.160197e+02	2.582107e+01	3.823542e-01	1.929101e+00	-6.603900e+01	3.537491e+05	8.867621e+03	4.537804e+02	-2.313949e+18	1.121388e+00	
1.161301e+02	2.999528e+01	7.170857e-01	-1.292930e+01	2.907051e-01	6.816476e+05	1.734039e+04	4.738248e+02	-2.289446e+18	1.147015e-01	
1.157157e+02	1.373734e+01	2.134318e+00	1.188097e+03	1.688221e+02	2.037101e+06	4.286322e+04	3.971502e+02	-2.215635e+18	3.941117e+00	
1.157527e+02	1.478821e+01	2.870719e-02	6.157625e+00	-8.537507e+00	2.615235e+04	6.181788e+02	4.206124e+02	-2.337806e+18	2.467666e+00	
1.157992e+02	1.610989e+01	7.516139e-02	2.764621e-01	-2.435216e+01	7.035201e+04	1.694383e+03	4.404273e+02	-2.334694e+18	2.131410e+00	
1.158577e+02	1.777333e+01	8.781384e-02	5.014583e-01	-2.744923e+01	8.272757e+04	2.001209e+03	4.452585e+02	-2.333807e+18	2.045461e+00	
1.159313e+02	1.986687e+01	1.105258e-01	9.128605e-01	-3.261302e+01	1.037635e+05	2.524279e+03	4.462776e+02	-2.332294e+18	1.929299e+00	
1.160240e+02	2.250176e+01	1.770136e-01	2.533440e+00	-4.524323e+01	1.648322e+05	4.055801e+03	4.478622e+02	-2.327865e+18	1.670697e+00	
1.161406e+02	2.581787e+01	3.814196e-01	2.552197e+00	-6.560002e+01	3.506564e+05	8.790206e+03	4.509263e+02	-2.314173e+18	1.120574e+00	
1.162874e+02	2.999112e+01	7.159695e-01	-1.704883e+01	5.906030e-01	6.768340e+05	1.721536e+04	4.711516e+02	-2.289808e+18	1.519684e-01	
1.157333e+02	1.373672e+01	2.227804e+00	1.203702e+03	1.975599e+02	2.112544e+06	4.482978e+04	3.981437e+02	-2.209948e+18	3.835074e+00	
1.157805e+02	1.478723e+01	3.377477e-02	7.784384e+00	-9.887651e+00	3.101838e+04	7.317686e+02	4.232056e+02	-2.337478e+18	2.499807e+00	
1.158399e+02	1.610846e+01	7.530492e-02	3.313675e-01	-2.433024e+01	7.045517e+04	1.697380e+03	4.403660e+02	-2.334685e+18	2.125642e+00	
1.159146e+02	1.777133e+01	8.773030e-02	6.370386e-01	-2.732870e+01	8.258768e+04	1.998473e+03	4.450732e+02	-2.333815e+18	2.039056e+00	
1.160087e+02	1.986415e+01	1.110949e-01	1.165584e+00	-3.265031e+01	1.040467e+05	2.531782e+03	4.453131e+02	-2.332272e+18	1.924170e+00	
1.161271e+02	2.249814e+01	1.770760e-01	3.241600e+00	-4.513706e+01	1.641680e+05	4.039289e+03	4.458842e+02	-2.327913e+18	1.671572e+00	
1.162760e+02	2.581310e+01	3.785589e-01	3.217897e+00	-6.467237e+01	3.461917e+05	8.679309e+03	4.486015e+02	-2.314494e+18	1.116492e+00	
1.164635e+02	2.998493e+01	7.135195e-01	-2.141598e+01	8.946883e-01	6.703911e+05	1.704812e+04	4.681848e+02	-2.290292e+18	1.922128e-01	
1.157531e+02	1.373584e+01	2.330399e+00	1.219957e+03	2.291725e+02	2.207711e+06	4.729270e+04	4.017053e+02	-2.202826e+18	3.715861e+00	
1.158117e+02	1.478583e+01	3.889320e-02	9.327703e+00	-1.118803e+01	3.686884e+04	8.712763e+02	4.375828e+02	-2.337074e+18	2.471171e+00	
1.158855e+02	1.610641e+01	7.557976e-02	3.845351e-01	-2.434852e+01	7.063964e+04	1.702292e+03	4.400351e+02	-2.334671e+18	2.120372e+00	
1.159784e+02	1.776846e+01	8.763715e-02	7.821098e-01	-2.722146e+01	8.239916e+04	1.994369e+03	4.446313e+02	-2.333826e+18	2.034510e+00	
1.160953e+02	1.986026e+01	1.116306e-01	1.411264e+00	-3.266390e+01	1.042472e+05	2.537299e+03	4.441441e+02	-2.332256e+18	1.918830e+00	
1.162425e+02	2.249295e+01	1.764728e-01	3.965441e+00	-4.480367e+01	1.628920e+05	4.008024e+03	4.439460e+02	-2.328003e+18	1.670749e+00	
1.164277e+02	2.580629e+01	3.732697e-01	3.892138e+00	-6.276020e+01	3.400137e+05	8.528201e+03	4.470294e+02	-2.314931e+18	1.101497e+00	
1.166607e+02	2.997607e+01	7.104480e-01	-2.595130e+01	1.133377e+00	6.631078e+05	1.685865e+04	4.649909e+02	-2.290840e+18	2.347502e-01	
1.157751e+02	1.373460e+01	2.518414e+00	1.288661e+03	2.649948e+02	2.421629e+06	5.232116e+04	4.115020e+02	-2.188283e+18	3.602945e+00	
1.158466e+02	1.478388e+01	4.369184e-02	1.130381e+01	-1.248493e+01	4.588980e+04	1.088268e+03	4.865318e+02	-2.336447e+18	2.412066e+00	
1.159366e+02	1.610356e+01	7.613059e-02	4.249603e-01	-2.453894e+01	7.105595e+04	1.712067e+03	4.393614e+02	-2.334643e+18	2.123180e+00	
1.160498e+02	1.776447e+01	8.784088e-02	9.461327e-01	-2.742026e+01	8.239747e+04	1.992953e+03	4.432862e+02	-2.333831e+18	2.048095e+00	
1.161923e+02	1.985484e+01	1.130804e-01	1.779174e+00	-3.313875e+01	1.052626e+05	2.561087e+03	4.425646e+02	-2.332187e+18	1.926186e+00	
1.163717e+02	2.248573e+01	1.769302e-01	4.974046e+00	-4.472292e+01	1.627124e+05	4.003669e+03	4.423201e+02	-2.328016e+18	1.670238e+00	
1.165974e+02	2.579680e+01	3.654459e-01	4.547526e+00	-5.910733e+01	3.319693e+05	8.335959e+03	4.462916e+02	-2.315487e+18	1.061529e+00	
1.168814e+02	2.996373e+01	7.115699e-01	-3.088969e+01	9.051968e-01	6.576901e+05	1.671497e+04	4.603252e+02	-2.291255e+18	2.802591e-01	
1.157998e+02	1.373292e+01	2.804532e+00	1.381233e+03	3.270045e+02	2.709889e+06	5.911405e+04	4.180346e+02	-2.168639e+18	3.467598e+00	
1.158857e+02	1.478121e+01	3.185993e-02	8.296124e+00	-9.175875e+00	3.400401e+04	8.065392e+02	4.944610e+02	-2.337262e+18	2.409890e+00	
1.159938e+02	1.609966e+01	7.696239e-02	4.357241e-01	-2.498817e+01	7.171342e+04	1.726235e+03	4.382118e+02	-2.334602e+18	2.141501e+00	
1.161297e+02	1.775903e+01	8.810346e-02	1.037276e+00	-2.810473e+01	8.228435e+04	1.984852e+03	4.401712e+02	-2.333854e+18	2.100547e+00	
1.163009e+02	1.984744e+01	1.125015e-01	1.684820e+00	-3.352706e+01	1.042535e+05	2.531804e+03	4.397565e+02	-2.332272e+18	1.964682e+00	
1.165163e+02	2.247588e+01	1.716517e-01	5.170263e+00	-4.336730e+01	1.572809e+05	3.869468e+03	4.406299e+02	-2.328404e+18	1.674101e+00	
1.167873e+02	2.578386e+01	3.548528e-01	4.944833e+00	-5.317968e+01	3.216892e+05	8.094542e+03	4.462797e+02	-2.316185e+18	9.848781e-01	
1.171285e+02	2.994689e+01	6.716359e-01	-3.954998e+01	1.804873e-01	6.146664e+05	1.561004e+04	4.553905e+02	-2.294450e+18	3.820093e-01	
1.158275e+02	1.373065e+01	2.736921e+00	1.273177e+03	3.966581e+02	2.591390e+06	5.700425e+04	4.130185e+02	-2.174740e+18	3.358060e+00	
1.159294e+02	1.477763e+01	4.650755e-02	2.669133e+01	-9.790882e+00	4.107794e+04	8.264402e+02	3.471515e+02	-2.337204e+18	4.529063e+00	
1.160577e+02	1.609442e+01	7.844200e-02	4.573029e-01	-2.574348e+01	7.293148e+04	1.753015e+03	4.366203e+02	-2.334524e+18	2.168591e+00	
1.162191e+02	1.775170e+01	9.020524e-02	1.375564e+00	-2.960687e+01	8.389333e+04	2.016166e+03	4.367045e+02	-2.333763e+18	2.170716e+00	
1.164223e+02	1.983749e+01	1.219670e-01	3.391910e+00	-3.744265e+01	1.129151e+05	2.732577e+03	4.378178e+02	-2.331692e+18	2.034174e+00	
1.166780e+02	2.246262e+01	1.840392e-01	8.291710e+00	-4.700382e+01	1.688436e+05	4.147958e+03	4.405777e+02	-2.327598e+18	1.706602e+00	
1.169998e+02	2.576644e+01	3.488383e-01	5.817519e+00	-4.735481e+01	3.158616e+05	7.965577e+03	4.467269e+02	-2.316558e+18	8.944932e-01	
1.174048e+02	2.992424e+01	5.023093e-01	-5.813204e+01	-1.127470e+00	4.588889e+05	1.159940e+04	4.520950e+02	-2.306049e+18	7.530481e-01	
3.978304e+02	2.249787e+00	1.010938e+01	1.313165e+03	-6.285276e+00	1.002754e+07	2.429627e+05	4.910183e+02	-1.636956e+18	8.456163e-01	
3.045261e+00	3.293489e+01	3.721165e+01	6.150112e+02	-3.028408e+01	3.708239e+07	8.040248e+05	4.995337e+02	-1.438807e+16	1.216641e-01	
1.157610e+02	1.366078e+01	4.244790e+00	1.492117e+03	2.571660e+02	4.235237e+06	9.925681e+04	4.659765e+02	-2.052548e+18	2.325590e+00	
1.157772e+02	1.371837e+01	3.029084e+00	1.404411e+03	2.728528e+02	3.033229e+06	6.778498e+04	4.437993e+02	-2.143563e+18	3.140500e+00	
1.158465e+02	1.372681e+01	2.822785e+00	1.223490e+03	3.400897e+02	2.801388e+06	6.333401e+04	4.444816e+02	-2.156435e+18	2.985801e+00	
1.162760e+02	1.345202e+01	4.998052e+00	1.457515e+03	2.648676e+02	4.976966e+06	1.187445e+05	4.748698e+02	-1.996190e+18	1.919857e+00	
1.159016e+02	1.360186e+01	4.846970e+00	1.491276e+03	2.992311e+02	4.833453e+06	1.147492e+05	4.729230e+02	-2.007744e+18	2.035666e+00	
1.158703e+02	1.366173e+01	4.096248e+00	1.401656e+03	3.371745e+02	4.094516e+06	9.621920e+04	4.677167e+02	-2.061332e+18	2.288467e+00	
1.159230e+02	1.375549e+01	2.894809e+00	1.361178e+03	4.583110e+02	2.818235e+06	6.189988e+04	4.241662e+02	-2.160582e+18	3.375312e+00	
1.161352e+02	1.354939e+01	4.558004e+00	1.348809e+03	3.104825e+02	4.562267e+06	1.088535e+05	4.763186e+02	-2.024794e+18	1.959794e+00	
1.159992e+02	1.354698e+01	5.104392e+00	1.494543e+03	2.711057e+02	5.084677e+06	1.212135e+05	4.748807e+02	-1.989050e+18	1.928427e+00	
1.159078e+02	1.370336e+01	3.380545e+00	1.258844e+03	3.704492e+02	3.388107e+06	7.873636e+04	4.623053e+02	-2.111892e+18	2.530945e+00	
1.160151e+02	1.385415e+01	1.915808e+00	1.701561e+03	2.676664e+02	1.921031e+06	2.881646e+04	2.985124e+02	-2.256258e+18	7.294867e+00	
1.160037e+02	1.363554e+01	4.081817e+00	1.277877e+03	3.579740e+02	4.091734e+06	9.713860e+04	4.736641e+02	-2.058673e+18	2.099893e+00	
1.159282e+02	1.340147e+01	6.746874e+00	1.845719e+03	8.058328e+01	6.711597e+06	1.599750e+05	4.777073e+02	-1.876953e+18	1.782329e+00	
1.160304e+02	1.373350e+01	3.225143e+00	1.233464e+03	4.666034e+02	3.217274e+06	7.410012e+04	4.558428e+02	-2.125300e+18	2.683800e+00	
1.176911e+02	1.069942e+01	7.011777e+00	1.896533e+03	-4.085359e+01	6.972974e+06	1.661648e+05	4.780213e+02	-1.859053e+18	1.762466e+00	
1.158715e+02	1.351933e+01	5.986949e+00	1.696384e+03	1.744470e+02	5.958815e+06	1.420488e+05	4.763794e+02	-1.928795e+18	1.850313e+00	
1.160846e+02	1.344102e+01	5.804801e+00	1.646120e+03	1.889768e+02	5.773941e+06	1.377222e+05	4.759726e+02	-1.941307e+18	1.853507e+00	
1.161561e+02	1.380229e+01	2.985220e+00	1.530898e+03	5.041933e+02	2.901346e+06	6.194036e+04	4.120504e+02	-2.160465e+18	3.730815e+00	
1.180197e+02	1.169697e+01	6.818699e+00	1.862883e+03	-2.738876e+00	6.781799e+06	1.616237e+05	4.777068e+02	-1.872185e+18	1.778854e+00	
1.182411e+02	1.026969e+01	6.953261e+00	1.885894e+03	-4.591869e+01	6.914737e+06	1.647831e+05	4.779104e+02	-1.863048e+18	1.767187e+00	
1.168612e+02	1.242641e+01	7.061878e+00	1.907299e+03	-7.257171e-01	7.023826e+06	1.673634e+05	4.781592e+02	-1.855586e+18	1.759618e+00	
1.171847e+02	1.133360e+01	7.087858e+00	1.909904e+03	-3.225000e+01	7.048673e+06	1.679627e+05	4.781700e+02	-1.853853e+18	1.756003e+00	
1.175956e+02	9.895848e+00	6.951279e+00	1.885281e+03	-4.432805e+01	6.912618e+06	1.647346e+05	4.779019e+02	-1.863189e+18	1.767082e+00	
1.164673e+02	1.228357e+01	7.226813e+00	1.934315e+03	-1.668214e+01	7.187062e+06	1.712457e+05	4.784398e+02	-1.844359e+18	1.744650e+00	
1.167512e+02	1.308469e+01	5.826324e+00	1.661322e+03	1.656972e+02	5.799628e+06	1.382818e+05	4.761814e+02	-1.939689e+18	1.860485e+00	
1.159932e+02	1.326412e+01	7.084664e+00	1.911752e+03	3.358551e+01	7.047091e+06	1.679116e+05	4.782301e+02	-1.854001e+18	1.758368e+00	
1.164109e+02	1.301130e+01	6.866783e+00	1.874772e+03	4.447424e+01	6.830997e+06	1.627688e+05	4.778245e+02	-1.868874e+18	1.778326e+00	
1.161882e+02	1.366191e+01	3.342436e+00	1.063706e+03	3.794859e+02	3.419479e+06	8.121466e+04	4.817761e+02	-2.104725e+18	2.155847e+00	
1.194649e+02	1.065552e+01	6.673746e+00	1.836237e+03	-1.578895e+01	6.637413e+06	1.581933e+05	4.774128e+02	-1.882106e+18	1.790958e+00	
1.173778e+02	1.179770e+01	7.052363e+00	1.904628e+03	-2.147638e+01	7.013853e+06	1.671318e+05	4.781222e+02	-1.856256e+18	1.759633e+00	
1.167494e+02	1.071433e+01	7.048386e+00	1.902858e+03	-3.338717e+01	7.009242e+06	1.670273e+05	4.780855e+02	-1.856558e+18	1.759190e+00	
1.167196e+02	1.190323e+01	7.173097e+00	1.924859e+03	-2.350104e+01	7.133512e+06	1.699759e+05	4.783337e+02	-1.848031e+18	1.748965e+00	
1.161986e+02	1.400603e+01	1.283041e+00	1.312128e+03	1.748406e+02	1.318206e+06	1.600677e+04	2.469461e+02	-2.293303e+18	9.179995e+00	
1.172786e+02	8.825251e+00	6.872999e+00	1.870591e+03	-4.525623e+01	6.834655e+06	1.628876e+05	4.777577e+02	-1.868530e+18	1.772961e+00	
1.162890e+02	1.327736e+01	6.185369e+00	1.735925e+03	1.357363e+02	6.150714e+06	1.466319e+05	4.764149e+02	-1.915541e+18	1.830255e+00	
1.161097e+02	1.253860e+01	7.300146e+00	1.946593e+03	-1.212563e+01	7.259899e+06	1.729749e+05	4.785738e+02	-1.839358e+18	1.738379e+00	
1.160942e+02	1.296722e+01	7.283877e+00	1.946191e+03	8.935064e-01	7.244626e+06	1.725986e+05	4.785634e+02	-1.840446e+18	1.741759e+00	
1.174335e+02	1.270955e+01	5.878241e+00	1.675475e+03	1.392039e+02	5.846331e+06	1.393767e+05	4.758410e+02	-1.936523e+18	1.858118e+00	
1.218392e+02	1.163912e+01	4.295371e+00	1.311297e+03	2.458317e+02	4.272618e+06	1.017785e+05	4.721292e+02	-2.045255e+18	2.011535e+00	
1.209311e+02	9.183535e+00	6.736938e+00	1.847201e+03	-4.045486e+01	6.699882e+06	1.596788e+05	4.775125e+02	-1.877810e+18	1.785433e+00	
1.162891e+02	1.146998e+01	7.152794e+00	1.921143e+03	-2.359121e+01	7.113112e+06	1.694929e+05	4.782851e+02	-1.849428e+18	1.750478e+00	
1.225466e+02	1.024917e+01	5.404704e+00	1.576131e+03	1.252383e+02	5.374764e+06	1.281443e+05	4.748079e+02	-1.969006e+18	1.898597e+00	
1.163733e+02	1.375641e+01	2.990174e+00	1.182528e+03	4.644099e+02	2.960125e+06	6.768360e+04	4.487121e+02	-2.143856e+18	2.808413e+00	
1.162110e+02	9.882858e+00	6.972829e+00	1.889930e+03	-3.305401e+01	6.934164e+06	1.652422e+05	4.779395e+02	-1.861720e+18	1.765847e+00	
1.185539e+02	9.052029e+00	6.880654e+00	1.871768e+03	-5.244277e+01	6.842256e+06	1.630682e+05	4.777717e+02	-1.868008e+18	1.772314e+00	
1.164171e+02	1.270813e+01	7.194834e+00	1.930466e+03	-1.799947e+00	7.155981e+06	1.704989e+05	4.784012e+02	-1.846518e+18	1.748671e+00	
1.295678e+01	2.095374e+01	3.709017e+01	7.204460e+02	-1.062024e+02	3.696006e+07	8.017566e+05	4.994795e+02	-2.094775e+16	1.442779e-01	
1.804236e+01	1.892018e+01	3.703981e+01	7.590583e+02	-1.459854e+02	3.690931e+07	8.008127e+05	4.994556e+02	-2.367744e+16	1.533142e-01	
1.394472e+01	1.533075e+01	3.703191e+01	7.710515e+02	-9.376755e+01	3.690169e+07	8.006756e+05	4.994573e+02	-2.407393e+16	1.540866e-01	
2.302954e+01	1.737098e+01	3.696852e+01	8.070721e+02	-1.900915e+02	3.683765e+07	7.994823e+05	4.994249e+02	-2.752476e+16	1.647213e-01	
1.959353e+01	1.322730e+01	3.696918e+01	8.225754e+02	-1.238768e+02	3.683884e+07	7.995073e+05	4.994314e+02	-2.745263e+16	1.652525e-01	
1.191564e+02	1.272408e+01	4.097488e+00	1.253625e+03	2.917250e+02	4.072444e+06	9.697508e+04	4.711591e+02	-2.059146e+18	2.034705e+00	
1.218182e+02	1.364136e+01	2.554289e+00	8.103961e+02	3.477898e+02	2.561146e+06	6.078113e+04	4.703100e+02	-2.163818e+18	2.222581e+00	
1.217056e+02	1.568689e+01	2.033454e+00	9.042633e+02	4.868963e+02	2.045960e+06	4.514359e+04	4.381291e+02	-2.209041e+18	3.363806e+00	
1.255866e+02	1.260639e+01	2.902204e+00	9.248723e+02	3.323901e+02	2.884374e+06	6.846224e+04	4.670640e+02	-2.141604e+18	2.191327e+00	
1.258603e+02	1.829167e+01	1.244831e+00	4.759845e+02	3.713237e+02	1.243144e+06	2.782258e+04	4.392875e+02	-2.259132e+18	3.212830e+00	
3.883612e+02	1.577423e+01	9.892707e+00	9.775871e+02	7.125642e-01	9.808308e+06	2.387813e+05	4.925563e+02	-1.649048e+18	6.415370e-01	
3.832847e+02	1.596823e+01	9.881727e+00	9.726451e+02	-8.856756e-01	9.797044e+06	2.385277e+05	4.925556e+02	-1.649782e+18	6.389721e-01	
3.865767e+02	1.291092e+01	9.884425e+00	1.100943e+03	-5.763170e-01	9.804030e+06	2.383533e+05	4.920959e+02	-1.650286e+18	7.234484e-01	
3.810554e+02	1.196274e+01	9.888418e+00	1.137852e+03	-3.249564e+00	9.807067e+06	2.383142e+05	4.918415e+02	-1.650399e+18	7.476345e-01	
3.784704e+02	1.675982e+01	9.874163e+00	9.437821e+02	-1.505679e+00	9.787979e+06	2.383832e+05	4.926137e+02	-1.650200e+18	6.204239e-01	
3.762662e+02	1.269287e+01	9.878199e+00	1.115697e+03	-4.334833e+00	9.795231e+06	2.380965e+05	4.918756e+02	-1.651029e+18	7.337758e-01	
3.735540e+02	1.709065e+01	9.861592e+00	9.344908e+02	-2.977783e+00	9.774210e+06	2.380787e+05	4.925855e+02	-1.651080e+18	6.150863e-01	
3.714040e+02	1.286605e+01	9.872558e+00	1.112905e+03	-5.769864e+00	9.788281e+06	2.379374e+05	4.918188e+02	-1.651489e+18	7.323910e-01	
3.685952e+02	1.716716e+01	9.855547e+00	9.373174e+02	-4.980949e+00	9.767508e+06	2.379121e+05	4.925327e+02	-1.651562e+18	6.173513e-01	
3.664510e+02	1.288871e+01	9.868324e+00	1.115303e+03	-8.011439e+00	9.783455e+06	2.378150e+05	4.917704e+02	-1.651843e+18	7.343198e-01	
3.636140e+02	1.716905e+01	9.852300e+00	9.444736e+02	-7.079459e+00	9.763800e+06	2.378058e+05	4.924716e+02	-1.651870e+18	6.223128e-01	
3.614663e+02	1.287951e+01	9.865385e+00	1.119234e+03	-1.085614e+01	9.780252e+06	2.377271e+05	4.917310e+02	-1.652097e+18	7.371670e-01	
3.586245e+02	1.715897e+01	9.850530e+00	9.537396e+02	-9.110203e+00	9.761378e+06	2.377240e+05	4.923915e+02	-1.652106e+18	6.285947e-01	
3.564733e+02	1.286961e+01	9.863473e+00	1.124243e+03	-1.403119e+01	9.777862e+06	2.376546e+05	4.916756e+02	-1.652307e+18	7.406731e-01	
3.536322e+02	1.715153e+01	9.848333e+00	9.646860e+02	-1.090736e+01	9.758555e+06	2.376282e+05	4.923036e+02	-1.652383e+18	6.360205e-01	
3.514786e+02	1.286389e+01	9.861302e+00	1.130735e+03	-1.709617e+01	9.775117e+06	2.375690e+05	4.916062e+02	-1.652554e+18	7.451929e-01	
3.486391e+02	1.714769e+01	9.843531e+00	9.771084e+02	-1.235652e+01	9.753367e+06	2.374731e+05	4.922170e+02	-1.652832e+18	6.445852e-01	
3.464836e+02	1.286122e+01	9.856244e+00	1.138852e+03	-1.975851e+01	9.769800e+06	2.374184e+05	4.915396e+02	-1.652990e+18	7.509954e-01	
3.436457e+02	1.714600e+01	9.834991e+00	9.909086e+02	-1.364815e+01	9.744546e+06	2.372284e+05	4.921238e+02	-1.653539e+18	6.543111e-01	
3.414885e+02	1.286003e+01	9.845819e+00	1.148190e+03	-2.222014e+01	9.758641e+06	2.371247e+05	4.914348e+02	-1.653839e+18	7.580380e-01	
3.386524e+02	1.714516e+01	9.822347e+00	1.006205e+03	-1.545860e+01	9.731178e+06	2.368709e+05	4.919946e+02	-1.654573e+18	6.653429e-01	
3.364941e+02	1.285881e+01	9.829940e+00	1.158361e+03	-2.524586e+01	9.741226e+06	2.366784e+05	4.912767e+02	-1.655130e+18	7.661109e-01	
3.336595e+02	1.714371e+01	9.805066e+00	1.023238e+03	-1.893504e+01	9.712162e+06	2.363721e+05	4.917978e+02	-1.656016e+18	6.779343e-01	
3.315021e+02	1.285383e+01	9.812312e+00	1.168981e+03	-3.029662e+01	9.721410e+06	2.361717e+05	4.910790e+02	-1.656595e+18	7.747137e-01	
3.286673e+02	1.713832e+01	9.781886e+00	1.042098e+03	-2.571306e+01	9.686460e+06	2.357073e+05	4.915412e+02	-1.657939e+18	6.922888e-01	
3.265167e+02	1.283287e+01	9.798562e+00	1.179218e+03	-3.954969e+01	9.705847e+06	2.357668e+05	4.909052e+02	-1.657766e+18	7.828788e-01	
3.236631e+02	1.712703e+01	9.756270e+00	1.063045e+03	-3.846014e+01	9.658168e+06	2.349730e+05	4.912572e+02	-1.660062e+18	7.084549e-01	
3.215312e+02	1.276849e+01	9.799902e+00	1.188033e+03	-5.554806e+01	9.705342e+06	2.357209e+05	4.907550e+02	-1.657899e+18	7.891822e-01	
3.185497e+02	1.715449e+01	9.740896e+00	1.086031e+03	-6.092913e+01	9.640131e+06	2.344717e+05	4.909669e+02	-1.661512e+18	7.257725e-01	
3.164667e+02	1.262712e+01	9.824106e+00	1.194909e+03	-7.973321e+01	9.728156e+06	2.362314e+05	4.906654e+02	-1.656423e+18	7.928575e-01	
3.128750e+02	1.750261e+01	9.728995e+00	1.103873e+03	-9.711460e+01	9.625948e+06	2.340714e+05	4.907171e+02	-1.662669e+18	7.404592e-01	
3.111756e+02	1.234007e+01	9.838705e+00	1.197736e+03	-1.075652e+02	9.740518e+06	2.365028e+05	4.905406e+02	-1.655638e+18	7.951467e-01	
3.079538e+02	1.738390e+01	9.695922e+00	1.127039e+03	-1.337265e+02	9.589282e+06	2.331154e+05	4.903304e+02	-1.665434e+18	7.611832e-01	
3.057991e+02	1.291496e+01	9.714355e+00	1.175142e+03	-1.283681e+02	9.613160e+06	2.335468e+05	4.903457e+02	-1.664187e+18	7.913787e-01	
3.036380e+02	1.709397e+01	9.607277e+00	1.133267e+03	-1.522713e+02	9.498529e+06	2.309357e+05	4.900479e+02	-1.671738e+18	7.739040e-01	
3.014395e+02	1.264337e+01	9.589068e+00	1.141888e+03	-1.274989e+02	9.488141e+06	2.306902e+05	4.903947e+02	-1.672448e+18	7.787514e-01	
2.988895e+02	1.717809e+01	9.464878e+00	1.126843e+03	-1.545242e+02	9.354309e+06	2.275317e+05	4.897877e+02	-1.681582e+18	7.811115e-01	
2.958671e+02	1.383366e+01	9.342087e+00	1.096333e+03	-1.233160e+02	9.237254e+06	2.248720e+05	4.901311e+02	-1.689274e+18	7.668945e-01	
2.940561e+02	1.725258e+01	9.300395e+00	1.114661e+03	-1.391989e+02	9.190255e+06	2.236819e+05	4.896584e+02	-1.692715e+18	7.846243e-01	
2.915073e+02	1.267913e+01	9.206663e+00	1.005762e+03	-6.177496e+01	9.098958e+06	2.218642e+05	4.903732e+02	-1.697972e+18	7.101204e-01	
2.894993e+02	1.673429e+01	9.158239e+00	1.081978e+03	-9.652643e+01	9.049332e+06	2.204499e+05	4.897524e+02	-1.702062e+18	7.699486e-01	
2.859376e+02	1.271190e+01	9.048915e+00	9.446940e+02	-3.183269e+01	8.939102e+06	2.182356e+05	4.904095e+02	-1.708466e+18	6.772283e-01	
2.842218e+02	1.711831e+01	8.972893e+00	1.067111e+03	-5.711659e+01	8.867379e+06	2.161808e+05	4.897756e+02	-1.714408e+18	7.724262e-01	
2.816614e+02	1.246175e+01	8.844238e+00	9.212828e+02	-2.312514e+01	8.732449e+06	2.133803e+05	4.901558e+02	-1.722507e+18	6.751307e-01	
2.792287e+02	1.586062e+01	8.762013e+00	1.014750e+03	-6.666743e+00	8.656898e+06	2.113283e+05	4.898332e+02	-1.728442e+18	7.503798e-01	
2.766270e+02	1.243030e+01	8.537358e+00	9.397788e+02	-1.780895e+01	8.422554e+06	2.059338e+05	4.894148e+02	-1.744042e+18	7.129567e-01	
2.754954e+02	1.718525e+01	8.475398e+00	1.124731e+03	3.271894e+01	8.381811e+06	2.044184e+05	4.892372e+02	-1.748425e+18	8.596495e-01	
2.717224e+02	1.266108e+01	6.398319e+00	1.068684e+03	2.997977e+01	6.301031e+06	1.541865e+05	4.844373e+02	-1.893693e+18	1.077654e+00	
2.698976e+02	1.650293e+01	4.617515e+00	1.035602e+03	4.397177e+01	4.562762e+06	1.112095e+05	4.803689e+02	-2.017981e+18	1.442680e+00	
2.665751e+02	1.267958e+01	2.379116e+00	7.734276e+02	8.112721e+01	2.366949e+06	5.655886e+04	4.694880e+02	-2.176028e+18	2.104478e+00	
2.644226e+02	1.676041e+01	2.490269e+00	7.875890e+02	9.208948e+01	2.479597e+06	5.939838e+04	4.712691e+02	-2.167816e+18	2.047104e+00	
2.613843e+02	1.353264e+01	2.522126e+00	8.040142e+02	8.878594e+01	2.509403e+06	6.005295e+04	4.705266e+02	-2.165923e+18	2.063875e+00	
2.592831e+02	1.696289e+01	2.533729e+00	7.891086e+02	1.121229e+02	2.522861e+06	6.050203e+04	4.718781e+02	-2.164625e+18	2.021397e+00	
2.564357e+02	1.275572e+01	2.689393e+00	8.453798e+02	8.670517e+01	2.675356e+06	6.407898e+04	4.712037e+02	-2.154280e+18	2.033455e+00	
2.553513e+02	1.672638e+01	2.659293e+00	8.166990e+02	1.148655e+02	2.648069e+06	6.356347e+04	4.726125e+02	-2.155771e+18	1.992434e+00	
2.516500e+02	1.289356e+01	2.832205e+00	8.755588e+02	9.366969e+01	2.817698e+06	6.756080e+04	4.720567e+02	-2.144211e+18	2.000201e+00	
2.491873e+02	1.629574e+01	2.877129e+00	8.631790e+02	1.184647e+02	2.864813e+06	6.886363e+04	4.737157e+02	-2.140443e+18	1.945068e+00	
2.462688e+02	1.277289e+01	3.010138e+00	9.132374e+02	9.996310e+01	2.994847e+06	7.188664e+04	4.729678e+02	-2.131701e+18	1.963107e+00	
2.435771e+02	1.777725e+01	3.069811e+00	8.895212e+02	1.405378e+02	3.056384e+06	7.362675e+04	4.750908e+02	-2.126669e+18	1.883072e+00	
2.410796e+02	1.348387e+01	3.193359e+00	9.439943e+02	1.126287e+02	3.178018e+06	7.640693e+04	4.742451e+02	-2.118628e+18	1.913839e+00	
2.387805e+02	1.730558e+01	3.252828e+00	9.252393e+02	1.467622e+02	3.238371e+06	7.807650e+04	4.758466e+02	-2.113800e+18	1.848668e+00	
2.368254e+02	1.263526e+01	3.378315e+00	9.859985e+02	1.139910e+02	3.361550e+06	8.085156e+04	4.747558e+02	-2.105775e+18	1.889278e+00	
2.345022e+02	1.688718e+01	3.320942e+00	9.370592e+02	1.339438e+02	3.305398e+06	7.973936e+04	4.761572e+02	-2.108991e+18	1.829592e+00	
2.317331e+02	1.253460e+01	3.609451e+00	1.029426e+03	1.249298e+02	3.591872e+06	8.647745e+04	4.757621e+02	-2.089505e+18	1.847320e+00	
2.292299e+02	1.664173e+01	2.947101e+00	8.554368e+02	4.122350e+01	2.930197e+06	7.068046e+04	4.748041e+02	-2.135189e+18	1.864916e+00	
2.261234e+02	1.306560e+01	3.568812e+00	1.004889e+03	8.982871e+01	3.551605e+06	8.564395e+04	4.764366e+02	-2.091915e+18	1.816076e+00	
2.231122e+02	1.767322e+01	2.072772e+00	6.670846e+02	-8.510031e+01	2.062456e+06	4.939411e+04	4.699279e+02	-2.196748e+18	2.084876e+00	
2.205482e+02	1.346657e+01	2.492901e+00	7.702710e+02	-8.587513e+01	2.478552e+06	5.951770e+04	4.717159e+02	-2.167471e+18	1.997799e+00	
2.190143e+02	1.697969e+01	2.135039e+00	6.850804e+02	-1.001729e+02	2.125087e+06	5.088356e+04	4.701149e+02	-2.192441e+18	2.084059e+00	
2.169043e+02	1.258835e+01	2.259472e+00	7.164734e+02	-1.338143e+02	2.247064e+06	5.380262e+04	4.699856e+02	-2.183999e+18	2.074569e+00	
2.142397e+02	1.710893e+01	2.295475e+00	7.253108e+02	-1.069831e+02	2.284877e+06	5.476263e+04	4.709344e+02	-2.181223e+18	2.052274e+00	
2.112717e+02	1.293844e+01	2.342557e+00	7.447123e+02	-1.496854e+02	2.330687e+06	5.575283e+04	4.699322e+02	-2.178359e+18	2.086309e+00	
2.088773e+02	1.749463e+01	2.504756e+00	7.755302e+02	-1.138726e+02	2.492894e+06	5.982213e+04	4.719077e+02	-2.166591e+18	2.010612e+00	
2.070418e+02	1.251048e+01	2.501088e+00	7.853594e+02	-1.665817e+02	2.487416e+06	5.952507e+04	4.702712e+02	-2.167450e+18	2.065997e+00	
2.030056e+02	1.748612e+01	2.746367e+00	8.335999e+02	-1.277831e+02	2.733193e+06	6.564492e+04	4.728028e+02	-2.149752e+18	1.973146e+00	
2.017337e+02	1.275161e+01	2.725610e+00	8.412589e+02	-1.822832e+02	2.709973e+06	6.489894e+04	4.709760e+02	-2.151909e+18	2.033172e+00	
1.977438e+02	1.749722e+01	2.996175e+00	8.923929e+02	-1.422563e+02	2.981515e+06	7.165590e+04	4.736038e+02	-2.132368e+18	1.938510e+00	
1.964113e+02	1.281126e+01	2.965223e+00	8.999593e+02	-2.018406e+02	2.947368e+06	7.061972e+04	4.715974e+02	-2.135365e+18	2.003307e+00	