 TITLE = "Adapted Mesh"
 VARIABLES = "X", "Y"
 ZONE T = "Domain", N=       18950 E=       35939 
 DATAPACKING=POINT, ZONETYPE=FEQUADRILATERAL
   115.652200000000        13.7382300000000     
   115.652200000000        14.7896122899470     
   115.652200000000        16.1119466301946     
   115.652200000000        17.7762056196718     
   115.652200000000        19.8707748919024     
   115.652200000000        22.5069598288973     
   115.652200000000        25.8246913631930     
   115.652200000000        30.0000000000000     
   115.662200000000        13.7382299995359     
   115.668018825858        14.7896122892128     
   115.675337223113        16.1119466291208     
   115.684547985713        17.7762056181705     
   115.696140280880        19.8707748898631     
   115.710730121936        22.5069598261809     
   115.729091951041        25.8246913596245     
   115.752200000000        29.9999999860769     
   115.673399828472        13.7381680140919     
   115.685735639483        14.7895142355183     
   115.701250516132        16.1118032120201     
   115.720777174854        17.7760051077507     
   115.745352641767        19.8705025240864     
   115.776282854550        22.5065970246292     
   115.815209617297        25.8242147414576     
   115.864198284721        29.9993801212521     
   115.685942965079        13.7380208405238     
   115.705577408853        14.7892814242136     
   115.730271851153        16.1114626932616     
   115.761351695230        17.7755290309168     
   115.800467536330        19.8698558393064     
   115.849697986057        22.5057356159590     
   115.911656241885        25.8230830951912     
   115.989629650791        29.9979083739534     
   115.699989795288        13.7377584865577     
   115.727797844947        14.7888664110430     
   115.762772315610        16.1108556790542     
   115.806790361521        17.7746803687072     
   115.862189702815        19.8687030486325     
   115.931914254552        22.5042000550299     
   116.019665059956        25.8210658043834     
   116.130097952880        29.9952848212987     
   115.715719485094        13.7373423420753     
   115.752680367332        14.7882081193327     
   115.799166449865        16.1098928363082     
   115.857672739635        17.7733342251701     
   115.931306401640        19.8668744981234     
   116.023980320791        22.5017643563534     
   116.140613713805        25.8178659883049     
   116.287394850944        29.9911233619440     
   115.733332011404        13.7367228763120     
   115.780541315993        14.7872281972284     
   115.839916944947        16.1084595645914     
   115.914645714580        17.7713303782630     
   116.008696336946        19.8641525482116     
   116.127066652044        22.4981386157658     
   116.276039864877        25.8131027952463     
   116.463520114043        29.9849286880627     
   115.753050336998        13.7358367414360     
   115.811733391872        14.7858264358984     
   115.885539674818        16.1064092946166     
   115.978430526045        17.7684639105169     
   116.095339213459        19.8602588467511     
   116.242478252190        22.4929520576442     
   116.427657917501        25.8062891313764     
   116.660703369991        29.9760673211394     
   115.775122705272        13.7346031340164     
   115.846649286874        14.7838750138021     
   115.936609005763        16.1035550696879     
   116.049830191411        17.7644734391160     
   116.192325819631        19.8548383412030     
   116.371668092851        22.4857317385317     
   116.597376663580        25.7968036833565     
   116.881427052747        29.9637312266430     
   115.799825009498        13.7329192305196     
   115.885725431758        14.7812112761823     
   115.993763278197        16.0996589847086     
   116.129737169839        17.7590263506510     
   116.300868438246        19.8474392220816     
   116.516250980708        22.4758758310459     
   116.787317500302        25.7838558209852     
   117.128450095023        29.9468921689925     
   115.827463161390        13.7306544701587     
   115.929445742940        14.7776286912037     
   116.057710286885        16.0944189582813     
   116.219141024111        17.7517003072869     
   116.422311253975        19.8374878016325     
   116.678017420766        22.4626201613250     
   116.999832642535        25.7664416369102     
   117.404831613976        29.9242445400459     
   398.199221022779        2.01830854800036     
   3.03055784550301        32.9390506639800     
   115.769168352607        13.6271690688075     
   115.761403512931        13.7195573508187     
   115.833535172510        13.7170892205624     
   116.225864346514        13.5533536704206     
   115.904436724893        13.5920660592743     
   115.856158510650        13.6510436912000     
   115.913744219314        13.7182241995301     
   116.097171811239        13.5364071201862     
   115.988069313891        13.5486598733113     
   115.883279227334        13.6833476324608     
   115.989389002933        13.7910804049972     
   115.959632680505        13.6338293995929     
   115.946083968311        13.4104940906520     
   115.981479336067        13.7165383418991     
   117.448945446274        10.7775644752025     
   115.924176858285        13.4599927335229     
   116.061455779719        13.4186174188371     
   116.082839559204        13.8048357627069     
   117.980349608921        11.5696590802319     
   118.165836588223        10.3681681449787     
   116.796210212402        12.5234218179265     
   117.059354597728        11.3861608274430     
   117.249005091415        10.0033262035149     
   116.321913186115        12.3976617612174     
   116.741871654257        13.1501317844754     
   116.112308324062        13.2456358495100     
   116.311234236906        13.1192383376589     
   116.148731960883        13.6681037945316     
   119.390799846488        10.8162992750194     
   117.231566108022        12.0110122294796     
   116.661573736128        10.7660181736823     
   116.635002697229        11.9455082799210     
   116.083662379718        14.0151173298881     
   116.641514624952        8.81197452453858     
   116.329395903389        13.3517647866594     
   116.206910620483        12.5857237638786     
   116.098859737141        12.9410991259817     
   117.514726018633        12.6610335401836     
   121.465598562430        11.5619055154066     
   120.739333189313        9.42327902610619     
   116.381451457749        11.4076061690749     
   122.954027239370        9.94445055459304     
   116.240429286089        13.8391662227141     
   116.025002533603        9.68600142272195     
   118.562867777225        9.05319470913611     
   116.425603443061        12.7922284869443     
   12.3015199011965        21.2462125638651     
   16.8330305285878        19.3513867142500     
   12.7421787121034        16.2069797840890     
   21.4361849596624        17.8091923538057     
   17.5308583589702        13.7124206685445     
   119.121500722407        12.7810201963922     
   121.462774482385        14.0869521208572     
   122.931716985986        16.2258027685436     
   125.344408356268        12.6579722852800     
   126.870858102136        18.4969018632263     
   387.429900859715        18.0181184508342     
   383.303974713650        17.7055800395411     
   386.363223885724        14.0232483168793     
   381.420441514889        13.4219141183613     
   378.505719903085        17.4719252521491     
   376.437137677172        13.1467005847026     
   373.569585293944        17.3265589803931     
   371.447997105925        13.0068960283243     
   368.597307502418        17.2417471592978     
   366.457192802937        12.9337782173996     
   363.612944698329        17.1944227095584     
   361.464962838419        12.8957354977056     
   358.623638094253        17.1690792979514     
   356.471528947223        12.8763648570200     
   353.632058511394        17.1560597355822     
   351.477273218838        12.8668060389188     
   348.639403918425        17.1496588307972     
   346.482547249885        12.8622687537703     
   343.646258668032        17.1466583186280     
   341.487590279000        12.8602108702453     
   338.652906244102        17.1453231386361     
   336.492535808472        12.8593244907715     
   333.659475744245        17.1447617246301     
   331.497446940006        12.8589639035294     
   328.666020284315        17.1445396301973     
   326.502348856358        12.8588260158488     
   323.672558858090        17.1444572901869     
   321.507249672963        12.8587766516906     
   318.679096963390        17.1444287779609     
   316.512151164028        12.8587601626634     
   313.685635611359        17.1444195835248     
   311.517053301327        12.8587550391056     
   308.692174692438        17.1444168339793     
   306.521955797566        12.8587535823913     
   303.698714031841        17.1444161445588     
   301.526859763225        12.8587534444583     
   298.705257383551        17.1444143175366     
   296.531813367131        12.8587482955577     
   293.711897856132        17.1443146159829     
   291.537668498767        12.8585202832670     
   288.719607090715        17.1423271797046     
   286.552783209643        12.8550152810574     
   283.731712340103        17.1207713567696     
   281.626791456035        12.8258299737637     
   278.722928817009        16.9737201890190     
   276.981114040181        12.6776833962309     
   273.276915869773        16.2259059442897     
   271.461497751248        12.1016230376061     
   268.415592300172        17.8461400075344     
   266.375875413570        12.9039096711426     
   263.789750869779        17.3075189060247     
   261.309826919558        13.4093743812442     
   258.511844276193        17.2335878981353     
   257.038786805454        12.5838068631699     
   254.071893262413        17.3840418682640     
   252.052584983751        12.8310635162341     
   249.295810073861        16.5749492850925     
   246.900116195820        12.7608609279055     
   244.344466313348        17.0303911300374     
   241.853092676990        12.8186837413360     
   239.191380775466        16.9415017959500     
   236.871677554298        12.8482797461860     
   234.016200030567        17.0736698834003     
   232.187152846150        12.8620591555009     
   228.345866411296        15.4607224847693     
   226.347387219745        12.7145452695088     
   223.257460276164        17.1761300769756     
   221.643624881715        12.5643172818200     
   217.333656738661        17.5559217248318     
   217.014206970038        13.1438403689680     
   212.594722871728        16.2899388114232     
   210.113578618530        13.1752104189210     
   207.957503999838        17.5737757858120     
   206.325855425153        13.6577324736767     
   203.431638642845        17.4874475295025     
   201.276954134487        13.1006677818883     
   198.517198406987        17.4559413345587     
   196.149052541282        13.4287046413640     
   193.536308656384        17.5316072398420     
   191.337467800345        13.5936185157580     
   188.471116456733        17.4986571663384     
   186.623124250320        12.6628993753735     
   183.582791063908        18.6893827743332     
   181.516716842586        13.2779444951685     
   178.940870245848        17.3129202005489     
   176.578744753936        13.1171700488508     
   174.017519294463        17.0157042931135     
   171.617693482164        12.8666649247181     
   168.901239166020        17.0795814370035     
   166.788247509831        12.5727146612155     
   163.876010647406        17.1525655924129     
   161.915412528218        13.3996962431638     
   159.007817122262        16.9943032728036     
   157.489131738424        11.4288738456415     
   154.007737040710        16.9354623890195     
   152.278832698310        12.6188350513757     
   148.922989307508        17.2876618006177     
   147.420736416424        13.7624192872188     
   145.168989412747        16.4793011278521     
   142.133285304927        12.5826834467614     
   137.323985839964        11.9653837154150     
   132.175104991724        14.2776407032797     
   116.450891651169        13.6464410431483     
   122.511131001554        7.65859284497411     
   117.685689393369        7.38664906159381     
   113.790190052975        9.64694341384221     
   115.824464845160        12.7424296891506     
   115.636437994097        10.7436871295501     
   112.396024162408        7.61894470479640     
   107.782656778773        7.77762223204622     
   111.460217745278        9.84421669202248     
   100.608621270428        5.54245355746442     
   32.7905887297872        11.9611422696961     
   28.4233295526966        13.4897567877846     
   25.3952660261925        16.8607549050119     
   23.0779867455467        13.2553126618714     
   12.9910884599729        11.9297101468676     
   7.45863976271358        27.7437523644013     
   7.94141777713712        23.1315869738403     
   11.7735538663769        26.1272282554693     
   16.2498632665304        24.4301990499802     
   8.27396604446418        18.2304257109791     
   20.7443055939098        22.7026696367989     
   118.818628325164        14.8145062274160     
   120.446860674691        16.4499113815046     
   121.466452335821        18.9184145414939     
   122.891842940479        21.9349934268236     
   127.770929174442        23.8500177424851     
   390.950096526138        21.0487662342719     
   385.496389463506        21.6635918412337     
   391.039974034582        15.6845550830319     
   390.436047659211        10.0558904329134     
   384.552175159338        9.28923432416167     
   380.611112305943        21.6710225862615     
   379.361943443889        8.93054009666684     
   375.693192563849        21.5927135605480     
   374.316887787621        8.75297532985454     
   370.735779578824        21.5258454566685     
   369.308446204607        8.66294366160068     
   365.759221528649        21.4822505002691     
   364.309672893236        8.61710577237941     
   360.774163143357        21.4568343177200     
   359.313125627496        8.59399905714644     
   355.785311240355        21.4430291794033     
   354.316823356097        8.58259225859765     
   350.794750741789        21.4359480918465     
   349.320365485492        8.57712889302424     
   345.803432072408        21.4325057469992     
   344.323757873282        8.57461112394233     
   340.811792156630        21.4309209529451     
   339.327068247855        8.57350305627423     
   335.820026338271        21.4302318687534     
   334.330344820640        8.57304043994822     
   330.828216524855        21.4299498620271     
   329.333611081572        8.57285826132722     
   325.836393815498        21.4298416150946     
   324.336875747483        8.57279091465824     
   320.844568432451        21.4298027706918     
   319.340141051180        8.57276763606198     
   315.852743027828        21.4297897769042     
   314.343407102377        8.57276013726609     
   310.860917971416        21.4297857362389     
   309.346673596257        8.57275789470383     
   305.869093142797        21.4297845900389     
   304.349940381741        8.57275734739915     
   300.877268463236        21.4297844415654     
   299.353214571976        8.57275890399699     
   295.885447033929        21.4297750579039     
   294.356693667358        8.57278632955326     
   290.893650524664        21.4294542733728     
   289.363108185624        8.57312907331699     
   285.901341431400        21.4249653353777     
   284.393535116207        8.57689001932714     
   280.898749672221        21.3922936662381     
   279.539663604079        8.61161434425754     
   275.830035803868        21.2787492007479     
   274.984605071286        8.86480238391858     
   270.781042285456        21.4117807909055     
   269.198047710146        9.25840251198013     
   265.843965503707        21.4950462298060     
   264.029500268515        8.09802120401707     
   261.568625979096        21.5052527911626     
   259.689559829408        8.63154142303690     
   255.980661082982        20.8235013821780     
   254.627954305260        8.54908418958645     
   250.517558813698        22.2827136176489     
   249.566451364523        8.56807784536955     
   246.168493292350        21.7653027597419     
   244.524205171161        8.57322334688938     
   241.600786606134        20.7651246614295     
   239.544113681008        8.60282874511617     
   236.691671351849        20.9335381590074     
   234.639670286753        8.67932511099688     
   230.550642089321        20.4061877741561     
   229.722357295102        8.97435001833325     
   224.639025497396        21.8542575398761     
   225.047848779680        9.03264121488128     
   220.136072670294        21.0994845036062     
   219.188855803334        8.44477973294360     
   215.221282137920        21.2302924397554     
   214.314981460610        8.57879760686670     
   210.393803418718        21.3330697591926     
   209.624299785400        8.44562542474412     
   205.621067481877        21.5813920780246     
   204.327028640868        9.16967000089668     
   200.784304743841        21.6198420451534     
   198.376793911452        9.17619957885086     
   195.842931266410        21.6421185330077     
   193.757450765153        9.81053246536271     
   190.906122797037        21.6691606280511     
   189.191327903618        8.45229098410228     
   186.311567853575        21.8022241760625     
   184.386235633346        8.63180173323448     
   180.811948638596        22.2009811332981     
   179.366193320470        8.62920010757572     
   175.359269956713        22.9796428176732     
   174.321259023030        8.32425661299606     
   171.258394458233        21.1670845830717     
   169.297589949864        8.93423528452851     
   166.247414739678        21.8788454072976     
   164.787103493478        7.83397702834496     
   161.269552032265        21.6343036289672     
   160.329948393919        8.45797653912013     
   156.066485821913        21.4597598189668     
   154.678928317388        9.11308704424274     
   151.020349928236        21.4860297755804     
   150.149998489672        8.19735736531789     
   145.982227941975        21.7896882317150     
   144.628576832422        8.19034492738209     
   139.504568297951        22.1404537696065     
   137.924874869936        16.5351736738261     
   139.881442823746        8.85664530027998     
   134.726479425326        9.56914965968574     
   129.532896773976        8.65447418720467     
   117.275010571584        13.9015979819234     
   124.807415024991        7.90799243840597     
   120.003262315353        7.07484849029064     
   112.548739937044        11.2125185840595     
   113.892515452028        11.4485752877922     
   115.895576551323        12.0725790888775     
   115.474746770724        7.59218800221798     
   114.968237200108        11.5539248915466     
   109.884031666326        8.32050099368957     
   110.134284259523        10.8762156070692     
   111.286812636941        11.3634428484848     
   109.095695183264        9.98558387993177     
   107.127085930310        10.4410741225708     
   104.941164271927        7.45354077659632     
   105.898746685667        10.0662662580683     
   103.676915705098        9.31428378847898     
   102.506677089506        8.40331083148472     
   100.134736637580        7.99947985278228     
   97.4693407025861        7.55927553701406     
   95.7597304749411        8.09217961983129     
   94.6761443388983        7.15328228073323     
   43.9542144979540        8.87047822529466     
   41.5037277748992        12.0558270774532     
   39.5779226973578        8.51849605781686     
   37.2381611553697        13.1454376044151     
   34.9874901645023        8.44012138903924     
   32.9933213965881        16.2311548226659     
   30.3047673446450        8.54495850682998     
   29.0026731928744        18.7787562899009     
   25.4028115364286        8.80974752606032     
   25.0433186593823        20.9709673499669     
   20.2873629532928        8.85036605479743     
   15.3558153015464        8.58302890703580     
   8.52897687020879        12.7718032923866     
   10.8044192456153        8.37413220507077     
   6.95103333946102        8.30743123057060     
   3.49561083618890        29.3676309520505     
   6.66520974527888        31.9969630115452     
   3.81974466907248        25.0264559919627     
   11.0577590162463        30.8134443898502     
   4.02387619178643        20.4163671551578     
   15.6350216554430        29.3989097091362     
   20.2162349161058        27.7548037275050     
   117.752717199362        16.4270102145483     
   118.565365131847        18.3992320003792     
   119.089161948862        21.2846475549394     
   119.773136575724        22.9029573666501     
   122.080938574521        26.3761313785335     
   392.893531840821        26.0069646840244     
   397.480222413496        26.8268580052927     
   396.029701120332        22.4227412655894     
   387.868803026007        25.7530556111279     
   395.895863425591        17.8147063164139     
   396.695474658875        4.61107194422338     
   392.580193507465        4.69984302338460     
   395.879293269865        8.77745255033345     
   387.471477718282        4.76606778928383     
   395.168396938132        13.1751400940050     
   382.817736573700        25.8131596114529     
   382.261483486090        4.56706115617938     
   377.851677629387        25.8067453074222     
   377.183634374872        4.43277317757928     
   372.885914687215        25.7776722896361     
   372.161016789718        4.36012940749284     
   367.909193147504        25.7520959124432     
   367.156111533015        4.32279661254379     
   362.925398938054        25.7351317081846     
   362.156312715407        4.30398412295234     
   357.938077153810        25.7252289902025     
   357.157796517043        4.29467345430673     
   352.949122714570        25.7198959851089     
   352.159506284878        4.29017603547786     
   347.959438765431        25.7172013343519     
   347.161203709977        4.28807299867308     
   342.969441477533        25.7159171986055     
   342.162864895989        4.28712878464591     
   337.979317451069        25.7153399556445     
   337.164505347046        4.28672480609275     
   332.989146489764        25.7150956987840     
   332.166138109344        4.28656118021934     
   327.998960240431        25.7149986875430     
   327.167769296177        4.28649878568666     
   323.008769946161        25.7149626319776     
   322.169400795374        4.28647648794469     
   318.018578997338        25.7149501277615     
   317.171032838143        4.28646904795506     
   313.028388152398        25.7149460918389     
   312.172665254610        4.28646673743498     
   308.038197459824        25.7149448842607     
   307.174297856259        4.28646607694254     
   303.048006846415        25.7149445965375     
   302.175930845938        4.28646610862745     
   298.057816220701        25.7149447368429     
   297.177582189458        4.28647269461164     
   293.067622609397        25.7149267384382     
   292.179627579424        4.28661083639928     
   288.077316886142        25.7144978757363     
   287.186008336059        4.28848099543480     
   283.085425642928        25.7104674250338     
   282.218212930637        4.30533865159598     
   278.084462028948        25.6949862100898     
   277.323866406137        4.40765140884776     
   273.077586819333        25.6987128812623     
   272.424687312718        4.81651766333449     
   268.087978868477        25.7131943482116     
   267.515574971273        5.23114927544548     
   263.178233576387        25.6297749168155     
   262.258086207019        4.36334158143241     
   257.986914048239        25.0779842690068     
   257.291247259116        4.30704321727391     
   253.498810427781        26.3173046154847     
   252.265514678835        4.29275664159445     
   248.047440589377        25.9205600627447     
   247.248025618489        4.29452998095665     
   243.108185266379        26.0312878390730     
   242.252360866559        4.30400797011685     
   238.333756956380        25.2715213733692     
   237.284055038262        4.33510979725259     
   233.124684277560        26.0692944783810     
   232.322666165758        4.41119609551771     
   227.564976361111        26.7413590460460     
   227.317881517546        4.46323061945647     
   223.205083433867        25.1229159318565     
   221.822865729593        4.34175165524787     
   217.890507017696        25.5094495364364     
   217.641229728395        4.35421375467715     
   212.898765216058        25.6316523082738     
   212.242401718085        4.27561032613515     
   207.987765273615        25.7205615427589     
   207.155753571771        4.20525747572232     
   203.080691274285        25.7856861047836     
   202.197104671017        4.30546700550653     
   198.138337865565        25.8076582483223     
   196.829646033301        4.69311142256948     
   193.174597537663        25.8162437350209     
   191.875456583780        4.91345119483888     
   188.281952402979        25.7777904838525     
   187.062551082723        4.39308329322684     
   183.558711070466        25.3370205843240     
   181.967810516858        3.98995406566279     
   177.423171558918        26.5216491139620     
   177.445144613855        3.57220478319465     
   173.038710184560        25.3403227386200     
   172.692125781369        3.99551078124557     
   167.744656294232        26.8502371739372     
   167.539138062808        4.29364098196193     
   164.040066062216        26.5229263372509     
   162.029668869629        4.06350000270743     
   158.425439437757        25.7752276841793     
   157.550167504099        5.24162491242780     
   153.184763101206        26.2200223570855     
   152.561537128934        3.90123029737892     
   148.378232347284        26.0299511427885     
   147.780846617822        3.75198808359590     
   143.496587655047        26.2653362629162     
   142.524436519034        4.14713041647247     
   139.631741337989        27.1082226667224     
   138.225072651109        5.07740530965482     
   134.221087975808        22.8532735742437     
   132.551687526784        4.42399259197893     
   117.005804434069        15.2300989844896     
   116.395726769258        14.0216364413504     
   127.413003860074        4.33758672410142     
   122.728204801103        4.41529283052552     
   113.030196007309        12.4693673946105     
   117.618280157777        4.44666182053885     
   114.129385284611        12.7915588606137     
   115.266508416907        12.7989376973520     
   112.482474419489        4.81208024153045     
   111.792944273267        12.4588441246943     
   110.413248175115        12.3377622399402     
   109.265955873816        11.7342186805202     
   108.044532174754        11.6186339939379     
   107.383294460047        4.60068098746825     
   105.790592378608        11.3910518144844     
   104.656478318637        11.2771444254232     
   102.495520928284        10.7838538446669     
   103.275724565275        3.95973792787392     
   100.699364768942        10.3115902204460     
   99.3869664610323        10.4463180283053     
   96.5195987736933        10.0041756079880     
   96.3183138232087        4.89446050388859     
   95.2112049362061        9.34914586557578     
   92.3506405954386        8.76309060669373     
   92.4548581656295        4.87334238026637     
   89.3945204352771        8.01116190837271     
   86.7024442470569        7.66043495291721     
   87.2292213381005        4.19546269337476     
   84.1994771033350        6.40274792683867     
   83.4083965747035        3.05366513500748     
   80.7055343852343        5.23413291900079     
   76.8358331744538        4.26723260712188     
   72.7801729021752        4.10600742391504     
   68.2297820576793        4.27517983219280     
   62.8882854521135        5.05813034487810     
   59.5125361995997        7.68691838239645     
   57.5316504455511        4.19667535392501     
   55.4492545398182        8.51128843239012     
   52.9447949782746        4.99925624991564     
   49.6764884655302        10.6710510419910     
   46.8032506440222        2.96582481849270     
   45.2831239970114        13.6674060727801     
   42.3126700792034        4.38448132160719     
   41.4687425390994        16.2094511421179     
   37.4158285642690        4.26620903318238     
   37.3346217183219        18.6974769116071     
   32.5637334452032        4.26047706346476     
   33.1704080778425        21.3515710058838     
   27.6570891690110        4.33291746818554     
   28.9943190115878        23.7751623205945     
   22.6723952323277        4.39045769712828     
   24.6928484803409        25.8983658516902     
   17.6912970226172        4.35074540502667     
   4.10991087721943        15.6103523133083     
   12.8361244228909        4.28014182846359     
   3.83493905587681        10.7440154897241     
   8.16850189168538        4.37273855792982     
   3.42188491566261        5.27485914532224     
   115.842620791840        13.2303675237271     
  0.000000000000000E+000  0.000000000000000E+000
  0.000000000000000E+000   36.0000000000000     
   400.000000000000        30.0000000000000     
   400.000000000000       0.000000000000000E+000
  0.000000000000000E+000   4.50000000000000     
  0.000000000000000E+000   9.00000000000000     
  0.000000000000000E+000   13.5000000000000     
  0.000000000000000E+000   18.0000000000000     
  0.000000000000000E+000   22.5000000000000     
  0.000000000000000E+000   27.0000000000000     