 TITLE = "Edge Error"
 VARIABLES = "X", "Y","Estimate1" 
 ZONE T = "Domain", I=       34071  DATAPACKING=POINT, ZONETYPE=ORDERED
   115.652356500000        13.7382300000000        2146.67888011421     
   115.652200000000        13.7546578500000        118807.529568304     
   115.652515500000        13.7546578500000        225337.501906788     
   115.652359000000        13.7710857000000        1100.77210716850     
   115.652669000000        13.7382300000000        2390.30969309352     
   115.652830500000        13.7546578500000        251715.713406476     
   115.652677000000        13.7710857000000        1045.48861487999     
   115.652521000000        13.7875135500000        104692.523142773     
   115.652842000000        13.7875135500000        108019.693634461     
   115.652686000000        13.8039414000000        704.084313259336     
   115.652200000000        13.7875135500000        132814.132883877     
   115.652362000000        13.8039414000000        1309.72035461738     
   115.652981000000        13.7382300000000        3601.35220830831     
   115.653146000000        13.7546578500000        379246.684326449     
   115.652995500000        13.7710857000000        1283.54877801557     
   115.653293500000        13.7382300000000        3612.89500398287     
   115.653461500000        13.7546578500000        296613.196478740     
   115.653314000000        13.7710857000000        1279.52511414486     
   115.653163500000        13.7875135500000        132200.311066789     
   115.653484000000        13.7875135500000        101106.641369502     
   115.653333500000        13.8039414000000        6.65517545814518     
   115.653010000000        13.8039414000000        56.4447807995708     
   115.652853500000        13.8203692500000        8227.84328409313     
   115.653180500000        13.8203692500000        1366.31986128988     
   115.653024000000        13.8367971000000        82.6397894887473     
   115.653506500000        13.8203692500000        676.967498051957     
   115.653353500000        13.8367971000000        13.6816191468449     
   115.653197500000        13.8532249500000        1366.31986128988     
   115.653529500000        13.8532249500000        238.739896883964     
   115.653373500000        13.8696528000000        8.20588733882942     
   115.652864500000        13.8532249500000        9203.81549286100     
   115.653038000000        13.8696528000000        94.1231455219078     
   115.652200000000        13.8203692500000        157962.930709187     
   115.652527000000        13.8203692500000        86122.9766472358     
   115.652365000000        13.8367971000000        1586.56693160892     
   115.652694500000        13.8367971000000        862.390965499146     
   115.652532500000        13.8532249500000        86122.9762084422     
   115.652702500000        13.8696528000000        847.099780265797     
   115.652200000000        13.8532249500000        157962.930709187     
   115.652367500000        13.8696528000000        1520.07729688496     
   115.653606000000        13.7382300000000        2816.65874184546     
   115.653776500000        13.7546578500000        129865.309174217     
   115.653632000000        13.7710857000000        978.579203822294     
   115.653918500000        13.7382300000000        1394.11122639346     
   115.654092000000        13.7546578500000        146340.334650186     
   115.653950000000        13.7710857000000        662.148349089278     
   115.653805000000        13.7875135500000        67123.5610899871     
   115.654126000000        13.7875135500000        68413.0791234106     
   115.653981000000        13.8039414000000        8.36703921867826     
   115.653657000000        13.8039414000000        8.36703921831128     
   115.654231000000        13.7382300000000        1389.65719686419     
   115.654407000000        13.7546578500000        132291.337653829     
   115.654268000000        13.7710857000000        662.148349059688     
   115.654543500000        13.7382300000000        1415.65747024129     
   115.654722500000        13.7546578500000        148602.111085845     
   115.654586000000        13.7710857000000        676.929083619604     
   115.654447000000        13.7875135500000        66316.9414364905     
   115.654768000000        13.7875135500000        69940.2537429030     
   115.654629000000        13.8039414000000        8.23141830693950     
   115.654305000000        13.8039414000000        8.20825022949828     
   115.654160000000        13.8203692500000        832.370220592975     
   115.654487000000        13.8203692500000        825.923501300548     
   115.654342000000        13.8367971000000       0.522997257838595     
   115.654813500000        13.8203692500000        834.719951006483     
   115.654671500000        13.8367971000000       0.560606831879367     
   115.654527000000        13.8532249500000        83.7999905261718     
   115.654859000000        13.8532249500000        84.7159723313243     
   115.654714500000        13.8696528000000       0.863771671792668     
   115.654194000000        13.8532249500000        83.5461351811023     
   115.654379000000        13.8696528000000       0.856982987712452     
   115.653833500000        13.8203692500000        848.472338075494     
   115.653683000000        13.8367971000000        2.39788367515418     
   115.654012500000        13.8367971000000       0.673689934469407     
   115.653862000000        13.8532249500000        88.2233179633199     
   115.654043500000        13.8696528000000       0.899533438216874     
   115.653708500000        13.8696528000000        1.59253788419521     
   115.653552500000        13.8860806500000        511.232302171465     
   115.653890500000        13.8860806500000        441.361718057433     
   115.653734500000        13.9025085000000        5.30593389645018     
   115.654228000000        13.8860806500000        439.818554833104     
   115.654075000000        13.9025085000000        4.56733308645895     
   115.653919000000        13.9189363500000        441.361706404994     
   115.654262500000        13.9189363500000        439.818568889418     
   115.654106500000        13.9353642000000       0.457976963763542     
   115.653575000000        13.9189363500000        511.232291515862     
   115.653759500000        13.9353642000000       0.457976963744786     
   115.654566500000        13.8860806500000        439.646369325302     
   115.654415500000        13.9025085000000        4.56474970525785     
   115.654904500000        13.8860806500000        439.774173042445     
   115.654756500000        13.9025085000000        4.56428724253228     
   115.654606000000        13.9189363500000        439.646385412454     
   115.654950000000        13.9189363500000        439.774191578590     
   115.654799500000        13.9353642000000       0.351727304305931     
   115.654453000000        13.9353642000000       0.357661066664382     
   115.654297000000        13.9517920500000        401.074386693377     
   115.654646000000        13.9517920500000        400.694351266889     
   115.654490000000        13.9682199000000        4.29691373268844     
   115.654995500000        13.9517920500000        400.853552224489     
   115.654842000000        13.9682199000000        4.29454609205832     
   115.654686000000        13.9846477500000        400.694351266910     
   115.655041000000        13.9846477500000        400.853569120159     
   115.654885000000        14.0010756000000       0.706380740818809     
   115.654331000000        13.9846477500000        401.074386693399     
   115.654527000000        14.0010756000000       0.715958224487089     
   115.653597500000        13.9517920500000        406.837180253623     
   115.653947000000        13.9517920500000        401.001086561464     
   115.653785000000        13.9682199000000        4.35865473441333     
   115.654137500000        13.9682199000000        4.30912087394344     
   115.653975500000        13.9846477500000        401.001097148382     
   115.654169000000        14.0010756000000       0.715958224487089     
   115.653620500000        13.9846477500000        406.837180253645     
   115.653811000000        14.0010756000000        2.84310117573355     
   115.652200000000        13.8860806500000        149084.189976833     
   115.652538000000        13.8860806500000        83080.7663139483     
   115.652370500000        13.9025085000000        892.386519287438     
   115.652876000000        13.8860806500000        11602.6260975989     
   115.652711500000        13.9025085000000        548.962457719799     
   115.652544000000        13.9189363500000        52893.0971335508     
   115.652887500000        13.9189363500000        11602.6259739955     
   115.652720000000        13.9353642000000        147.107135129741     
   115.652200000000        13.9189363500000        85982.3570710965     
   115.652373500000        13.9353642000000        174.205256574669     
   115.653214500000        13.8860806500000        1987.20582494119     
   115.653052500000        13.9025085000000        120.420360403093     
   115.653393500000        13.9025085000000        20.6246433833143     
   115.653231500000        13.9189363500000        1987.20582494130     
   115.653413000000        13.9353642000000        12.1148171223888     
   115.653066500000        13.9353642000000        72.1439199954005     
   115.652899000000        13.9517920500000        6830.94856009241     
   115.653248500000        13.9517920500000        1150.40708150467     
   115.653081000000        13.9682199000000        52.4571483802748     
   115.653433000000        13.9682199000000        9.08550643410228     
   115.653265500000        13.9846477500000        848.041800282951     
   115.653453000000        14.0010756000000        6.07949698670923     
   115.652910500000        13.9846477500000        4896.35348485529     
   115.653095000000        14.0010756000000        20.8723886751227     
   115.652200000000        13.9517920500000        16494.6272286974     
   115.652549500000        13.9517920500000        13969.0981374114     
   115.652376000000        13.9682199000000        116.812400674048     
   115.652728500000        13.9682199000000        103.743038156459     
   115.652555000000        13.9846477500000        9655.94956247545     
   115.652737000000        14.0010756000000        36.5773721856302     
   115.652200000000        13.9846477500000        10903.2761157806     
   115.652379000000        14.0010756000000        38.3938908805793     
   115.654856000000        13.7382300000000        1669.67816152088     
   115.655038000000        13.7546578500000        175828.568843465     
   115.654904500000        13.7710857000000        717.176897894438     
   115.655168500000        13.7382300000000        1675.02969415251     
   115.655353500000        13.7546578500000        139793.906298428     
   115.655223000000        13.7710857000000        714.928694490320     
   115.655089500000        13.7875135500000        73866.3868095949     
   115.655410500000        13.7875135500000        69844.4892814876     
   115.655277000000        13.8039414000000        10.1074228070617     
   115.654953000000        13.8039414000000        10.1074228066184     
   115.655762500000        13.8039414000000        19.8515975875212     
   115.655700000000        13.7710857000000        1352.00371123796     
   115.656052000000        13.7875135500000        69629.7794050372     
   115.655637500000        13.7382300000000        2659.23599115725     
   115.655984000000        13.7546578500000        134742.271033137     
   115.655523500000        13.8532249500000        82.4754491477862     
   115.655887500000        13.8696528000000        1.68436353805244     
   115.655825000000        13.8367971000000        1.04093784242138     
   115.656189000000        13.8532249500000        81.4815768283344     
   115.655467000000        13.8203692500000        1008.09749961248     
   115.656120500000        13.8203692500000        930.614197862756     
   115.655140500000        13.8203692500000        1024.95941848500     
   115.655001000000        13.8367971000000       0.596513231458891     
   115.655330500000        13.8367971000000       0.594705615636188     
   115.655191500000        13.8532249500000        85.4915193220895     
   115.655384500000        13.8696528000000       0.871679022834898     
   115.655049500000        13.8696528000000       0.871679022797921     
   115.656410000000        13.8039414000000        23.8437848513804     
   115.656336500000        13.7710857000000        1373.80300724338     
   115.656694500000        13.7875135500000        70859.3248716799     
   115.656262500000        13.7382300000000        2573.71072693514     
   115.656615000000        13.7546578500000        135298.109117956     
   115.657058000000        13.8039414000000        24.1009524201839     
   115.656973000000        13.7710857000000        1371.64633062834     
   115.657336500000        13.7875135500000        69886.7878299336     
   115.656887500000        13.7382300000000        2573.71072693514     
   115.657245500000        13.7546578500000        132958.532566161     
   115.656853500000        13.8532249500000        81.9162364262036     
   115.657228500000        13.8696528000000        1.67294063900341     
   115.657143500000        13.8367971000000        1.01369503883758     
   115.657518500000        13.8532249500000        81.0430055578424     
   115.656774000000        13.8203692500000        1208.96074725236     
   115.657427500000        13.8203692500000        1222.00107970425     
   115.656558000000        13.8696528000000        1.67044743388450     
   115.656484500000        13.8367971000000        1.01369503883758     
   115.656325000000        13.9189363500000        439.873935310311     
   115.656705500000        13.9353642000000       0.715873056889861     
   115.656632000000        13.9025085000000        9.13351620102812     
   115.657012500000        13.9189363500000        440.013102213969     
   115.656257000000        13.8860806500000        439.873935310287     
   115.656933000000        13.8860806500000        440.013134618701     
   115.657399000000        13.9353642000000       0.726408050472034     
   115.657314000000        13.9025085000000        9.13351620121844     
   115.657700500000        13.9189363500000        439.965962779533     
   115.657609500000        13.8860806500000        439.965962779509     
   115.657171500000        13.9846477500000        400.769551286047     
   115.657569000000        14.0010756000000        1.42545846316784     
   115.657484000000        13.9682199000000        8.58727552667616     
   115.657881500000        13.9846477500000        400.565356036360     
   115.657092000000        13.9517920500000        400.769580800691     
   115.657791000000        13.9517920500000        400.565322455062     
   115.656461500000        13.9846477500000        400.808024946798     
   115.656853500000        14.0010756000000        1.41750963298495     
   115.656779500000        13.9682199000000        8.60030480169290     
   115.656393000000        13.9517920500000        400.807999513422     
   115.655242500000        13.8860806500000        439.930235744681     
   115.655097500000        13.9025085000000        4.56590575343648     
   115.655580500000        13.8860806500000        439.863562529175     
   115.655438500000        13.9025085000000        4.56590575324620     
   115.655293500000        13.9189363500000        439.930235744704     
   115.655637500000        13.9189363500000        439.863562529199     
   115.655492500000        13.9353642000000       0.347890303093317     
   115.655146000000        13.9353642000000       0.342686151302756     
   115.656012500000        13.9353642000000       0.703155494471056     
   115.655950000000        13.9025085000000        9.13063430010589     
   115.655751500000        13.9846477500000        400.924811445784     
   115.656138000000        14.0010756000000        1.41545680586045     
   115.656075000000        13.9682199000000        8.59061418590664     
   115.655694500000        13.9517920500000        400.924811445762     
   115.655344500000        13.9517920500000        400.975958701865     
   115.655194000000        13.9682199000000        4.29585634841044     
   115.655546500000        13.9682199000000        4.30806048555940     
   115.655396000000        13.9846477500000        400.975977831362     
   115.655601000000        14.0010756000000       0.707761580550836     
   115.655243000000        14.0010756000000       0.707761580578931     
   115.655109500000        14.0339313000000        129.165381610632     
   115.655472500000        14.0337466500000        129.180679386384     
   115.655339000000        14.0666023500000       0.230873581730196     
   115.655836500000        14.0339313000000        129.820754258871     
   115.655708000000        14.0666023500000       0.231499593336301     
   115.655524000000        14.0667870000000       0.188973731197129     
   115.656564000000        14.0339313000000        129.904815024498     
   115.656262500000        14.0667870000000       0.195406785212031     
   115.655950000000        14.0996427000000        29.0295646180647     
   115.656700000000        14.0996427000000        28.5977842450391     
   115.656387500000        14.1324984000000       0.336189237020673     
   115.655200500000        14.0996427000000        55.6759087793487     
   115.655626500000        14.1324984000000       0.644778926536059     
   115.657291000000        14.0339313000000        130.275270790101     
   115.657001500000        14.0667870000000       0.195406785212031     
   115.658018000000        14.0339313000000        130.822947668990     
   115.657740000000        14.0667870000000       0.195180948237787     
   115.657450500000        14.0996427000000        28.6228733373314     
   115.658200000000        14.0996427000000        28.5414050649176     
   115.657910500000        14.1324984000000       0.331478903897320     
   115.657149000000        14.1324984000000       0.331914487206578     
   115.656973000000        14.2310654500000        17.9526054094048     
   115.657443500000        14.2635178500000        1.00070658534207     
   115.657296500000        14.1980081500000       6.201547355786147E-002
   115.657767000000        14.2304605500000        57.3534540093208     
   115.656836500000        14.1653541000000        28.5977851490675     
   115.657609000000        14.1651524500000        28.4472020460623     
   115.658250500000        14.2635178500000        1.00319126529708     
   115.658080500000        14.1980081500000       4.916213841102657E-002
   115.658564000000        14.2310654500000        11.5444083998177     
   115.658382000000        14.1653541000000        28.5414050649183     
   115.657848000000        14.2639211000000       0.440950689952159     
   115.655381500000        14.2310654000000        460.269551435978     
   115.655830000000        14.2635178500000        7.98648822122062     
   115.655728000000        14.1980081000000        2.37982754435089     
   115.656176500000        14.2304605500000        80.9150758043928     
   115.655291000000        14.1653540500000        177.383094105710     
   115.656063500000        14.1651524500000        28.8513970776428     
   115.656637000000        14.2635178500000        1.41444148365224     
   115.656512500000        14.1980081500000       0.205224090086892     
   115.656234000000        14.2639211000000        11.3051060193615     
   115.652200000000        14.0339313000000        10557.2381406578     
   115.652563500000        14.0337466500000        6815.24092371158     
   115.652384500000        14.0666023500000        83.8740288166896     
   115.652927500000        14.0339313000000        5524.33665052453     
   115.652754000000        14.0666023500000        54.5247925626758     
   115.652569500000        14.0667870000000        118.728241767062     
   115.653291000000        14.0337466500000        2249.64864536512     
   115.653123500000        14.0666023500000        43.8891627577540     
   115.653654500000        14.0339313000000        1506.74347564693     
   115.653492500000        14.0666023500000        17.9737813459815     
   115.653308000000        14.0667870000000        62.0434231859659     
   115.652950000000        14.0996427000000        8988.15830542940     
   115.653700000000        14.0996427000000        1957.95562402620     
   115.653342000000        14.1324984000000        104.228128526259     
   115.652200000000        14.0996427000000        14710.7507924242     
   115.652580500000        14.1324984000000        170.364371375464     
   115.654018000000        14.0337466500000        127.603697708233     
   115.653861500000        14.0666023500000        11.9706133721965     
   115.654382000000        14.0339313000000        142.700705591828     
   115.654231000000        14.0666023500000        1.13524885085654     
   115.654046500000        14.0667870000000        16.9450531780271     
   115.654745500000        14.0337466500000        128.928588658979     
   115.654600500000        14.0666023500000        1.13371286362561     
   115.654970000000        14.0666023500000       0.230191566036395     
   115.654785500000        14.0667870000000        1.60483211386641     
   115.654450000000        14.0996427000000        365.467922689287     
   115.654865000000        14.1324984000000        4.23802274767018     
   115.654103500000        14.1324984000000        22.6749675824187     
   115.653791000000        14.2310654000000        4769.14174565816     
   115.654217000000        14.2635178500000        82.7530768626980     
   115.654160000000        14.1980081000000        32.1603815388430     
   115.654586000000        14.2304605500000        739.589198336073     
   115.653745500000        14.1653540500000        2397.10813732021     
   115.654518000000        14.1651524500000        363.224886398871     
   115.655023500000        14.2635178500000        12.9204389389707     
   115.654944000000        14.1980081000000        2.37982754438500     
   115.654620500000        14.2639211000000        117.066806534597     
   115.652200000000        14.2310654000000        21172.9888613840     
   115.652603500000        14.2635178500000        300.373100840947     
   115.652592000000        14.1980081000000        284.063331532970     
   115.652995500000        14.2304605500000        14085.8959951613     
   115.652200000000        14.1653540500000        21172.9566402036     
   115.652972500000        14.1651524500000        12841.7917772419     
   115.653410500000        14.2635178500000        246.077209999585     
   115.653376000000        14.1980081000000        173.353364494582     
   115.653007000000        14.2639211000000        424.923329303030     
   115.659459000000        14.2631148500000        1.86945144038769     
   115.659255500000        14.1978066500000       9.806896100062867E-002
   115.660150500000        14.2298560500000        53.2827819783192     
   115.659052500000        14.1324984000000       0.662824079296371     
   115.659926000000        14.1649509500000        28.2474848012920     
   115.661072500000        14.2631148500000        1.87583873718815     
   115.660823500000        14.1978066500000       6.625268723464665E-002
   115.661745500000        14.2310654500000        9.87473270522017     
   115.660575500000        14.1324984000000       0.662824079302555     
   115.661473000000        14.1653541000000        28.5244606289463     
   115.660268500000        14.2639211000000       0.566929325955526     
   115.658847500000        14.0667870000000       0.391009327684021     
   115.659700000000        14.0996427000000        28.5983981499226     
   115.658643000000        14.0010756000000        2.86365621688515     
   115.659472500000        14.0339313000000        131.407808607746     
   115.660325000000        14.0667870000000       0.391628141335131     
   115.660075000000        14.0010756000000        2.87890016184556     
   115.660927500000        14.0339313000000        132.107676461020     
   115.661200500000        14.0996427000000        28.5244624290390     
   115.662098000000        14.1324984000000       0.661789761470641     
   115.661802500000        14.0667870000000       0.391727540127596     
   115.662700000000        14.0996427000000        28.5726944460414     
   115.661507000000        14.0010756000000        2.89485982061376     
   115.662382000000        14.0339313000000        132.840446277872     
   115.663279500000        14.0667870000000       0.392163673867396     
   115.662939000000        14.0010756000000        2.91266675480102     
   115.663836500000        14.0339313000000        133.658052030360     
   115.663620500000        14.1324984000000       0.662224577350540     
   115.664200000000        14.0996427000000        28.4788859534737     
   115.662685000000        14.2631148500000        1.85632043388128     
   115.662391500000        14.1978066500000       6.605248958667964E-002
   115.663331000000        14.2298560500000        52.9416471952514     
   115.663016500000        14.1649509500000        28.2221002015330     
   115.664298500000        14.2631148500000        1.86497455987839     
   115.663960000000        14.1978066500000       6.787821291707244E-002
   115.664927500000        14.2310654500000        9.64263660468104     
   115.664564000000        14.1653541000000        28.4788859534745     
   115.663495500000        14.2639211000000       0.484931624225283     
   115.658541000000        13.9682199000000        17.1901674806718     
   115.659302500000        13.9846477500000        400.341088774314     
   115.658439000000        13.9353642000000        1.47226029384280     
   115.659189000000        13.9517920500000        400.341130866279     
   115.658336500000        13.9025085000000        18.2516673570520     
   115.659075000000        13.9189363500000        439.915677521634     
   115.658234500000        13.8696528000000        3.30774427604073     
   115.658961500000        13.8860806500000        439.915631268744     
   115.659825000000        13.9353642000000        1.50586998889611     
   115.659700000000        13.9025085000000        18.2637624587898     
   115.660450000000        13.9189363500000        439.936833546589     
   115.659575500000        13.8696528000000        3.31879002306433     
   115.660314000000        13.8860806500000        439.936833546565     
   115.659950500000        13.9682199000000        17.1683226337738     
   115.660723000000        13.9846477500000        400.127978734960     
   115.660586500000        13.9517920500000        400.128029329363     
   115.658132000000        13.8367971000000        1.81952124931059     
   115.658848000000        13.8532249500000        80.8931655191213     
   115.658029500000        13.8039414000000        48.1647120126528     
   115.658734000000        13.8203692500000        1149.13184949278     
   115.657927500000        13.7710857000000        2707.76576585863     
   115.658620500000        13.7875135500000        69542.2119612903     
   115.657825000000        13.7382300000000        5145.06624926681     
   115.658507000000        13.7546578500000        135236.616578368     
   115.659325000000        13.8039414000000        48.6139908299064     
   115.659200000000        13.7710857000000        2698.35153097690     
   115.659904500000        13.7875135500000        69698.8986769319     
   115.659075000000        13.7382300000000        5145.06624926681     
   115.659768000000        13.7546578500000        134969.402087833     
   115.659450000000        13.8367971000000        1.76304992269830     
   115.660177500000        13.8532249500000        81.3140322859980     
   115.660041000000        13.8203692500000        1232.45399845140     
   115.660916000000        13.8696528000000        3.33379262273493     
   115.660768000000        13.8367971000000        1.79957198599683     
   115.661506500000        13.8532249500000        81.7428155745879     
   115.660620500000        13.8039414000000        53.5899777183270     
   115.661347500000        13.8203692500000        1359.65779794115     
   115.660472500000        13.7710857000000        2717.77775209470     
   115.661188500000        13.7875135500000        70145.7471234069     
   115.660325000000        13.7382300000000        5134.88701450867     
   115.661029500000        13.7546578500000        134827.959796177     
   115.661916000000        13.8039414000000        58.5513581512849     
   115.661745500000        13.7710857000000        2734.52035197211     
   115.662473000000        13.7875135500000        70578.1294132893     
   115.661575000000        13.7382300000000        5140.64192906858     
   115.662291000000        13.7546578500000        135121.584255529     
   115.662256500000        13.8696528000000        3.34924836149270     
   115.662086500000        13.8367971000000        1.80093736686288     
   115.662836500000        13.8532249500000        82.0608271258229     
   115.662655000000        13.8203692500000        1484.39457757308     
   115.661359500000        13.9682199000000        17.1591380557515     
   115.662143500000        13.9846477500000        399.920869237418     
   115.661211500000        13.9353642000000        1.53650726170596     
   115.661984500000        13.9517920500000        399.920869237396     
   115.661064000000        13.9025085000000        18.2637624587898     