TITLE = "Visualization of the solution"
VARIABLES = "x","y","Density","Momentum_x","Momentum_y","Energy","Pressure","Temperature","Pressure_Coefficient","Mach"
ZONE NODES= 18950, ELEMENTS= 35939, DATAPACKING=POINT, ZONETYPE=FEQUADRILATERAL
1.156522e+02	1.373823e+01	5.226352e+00	2.365399e+03	6.564037e+01	5.257172e+06	1.175178e+05	4.507316e+02	-2.955464e+18	3.018875e+00	
1.156522e+02	1.478961e+01	8.887541e-01	-1.099866e+00	-2.523354e+02	9.208381e+05	2.250610e+04	4.964573e+02	-3.164632e+18	1.765016e+00	
1.156522e+02	1.611195e+01	1.952097e+00	-9.283110e-01	-5.190468e+02	1.924224e+06	4.694283e+04	4.738965e+02	-3.110835e+18	1.700358e+00	
1.156522e+02	1.777621e+01	6.134078e-01	-8.848245e-01	-1.865031e+02	5.906055e+05	1.431016e+04	4.569614e+02	-3.182675e+18	1.968455e+00	
1.156522e+02	1.987077e+01	6.373125e-01	-1.018147e-01	-1.861957e+02	6.124971e+05	1.489515e+04	4.578505e+02	-3.181387e+18	1.889837e+00	
1.156522e+02	2.250696e+01	1.159265e+00	1.113738e-01	-2.765329e+02	1.114507e+06	2.745955e+04	4.651462e+02	-3.153727e+18	1.534453e+00	
1.156522e+02	2.582469e+01	2.265208e+00	-7.511151e-01	-3.555713e+02	2.178829e+06	5.434805e+04	4.735093e+02	-3.094532e+18	1.005661e+00	
1.156522e+02	3.000000e+01	3.901699e+00	-2.524790e+00	-1.179533e+01	3.782421e+06	9.491741e+04	4.835430e+02	-3.005219e+18	1.973689e-02	
1.156622e+02	1.373823e+01	7.657847e+00	2.663900e+03	4.790142e+02	7.710496e+06	1.782829e+05	4.713630e+02	-2.821690e+18	2.327358e+00	
1.156680e+02	1.478961e+01	9.325678e-01	-3.677557e+00	-2.527273e+02	9.409465e+05	2.305009e+04	4.847273e+02	-3.163434e+18	1.705674e+00	
1.156753e+02	1.611195e+01	1.740914e+00	-5.797088e+01	-4.688157e+02	1.708141e+06	4.163614e+04	4.708840e+02	-3.122517e+18	1.739225e+00	
1.156845e+02	1.777621e+01	6.139298e-01	-1.092338e+01	-1.856511e+02	5.909394e+05	1.432336e+04	4.569949e+02	-3.182646e+18	1.961092e+00	
1.156961e+02	1.987077e+01	6.363097e-01	-9.321689e-02	-1.810334e+02	6.101211e+05	1.487158e+04	4.578440e+02	-3.181439e+18	1.840341e+00	
1.157107e+02	2.250696e+01	1.151569e+00	1.945211e+00	-2.570078e+02	1.103843e+06	2.729910e+04	4.654991e+02	-3.154080e+18	1.435079e+00	
1.157291e+02	2.582469e+01	2.263379e+00	-7.746586e+00	-3.338561e+02	2.175905e+06	5.435802e+04	4.739682e+02	-3.094510e+18	9.447812e-01	
1.157522e+02	3.000000e+01	3.882515e+00	-5.379833e+01	-1.153643e+01	3.768369e+06	9.456592e+04	4.840775e+02	-3.005993e+18	9.041156e-02	
1.156734e+02	1.373817e+01	7.583603e+00	2.635116e+03	7.369387e+02	7.666550e+06	1.768958e+05	4.720716e+02	-2.824744e+18	2.373043e+00	
1.156857e+02	1.478951e+01	7.087448e-01	-2.980627e+01	-1.840292e+02	7.055076e+05	1.732806e+04	4.790185e+02	-3.176031e+18	1.663684e+00	
1.157013e+02	1.611180e+01	1.007257e+00	-1.275791e+02	-2.224153e+02	9.750795e+05	2.394545e+04	4.664875e+02	-3.161463e+18	1.633967e+00	
1.157208e+02	1.777601e+01	6.111206e-01	-1.951372e+01	-1.806499e+02	5.873315e+05	1.426114e+04	4.570947e+02	-3.182783e+18	1.924620e+00	
1.157454e+02	1.987050e+01	6.333032e-01	-1.636840e-01	-1.732426e+02	6.054167e+05	1.480442e+04	4.579331e+02	-3.181587e+18	1.769305e+00	
1.157763e+02	2.250660e+01	1.138192e+00	3.407614e+00	-2.401121e+02	1.088928e+06	2.700728e+04	4.659029e+02	-3.154723e+18	1.355912e+00	
1.158152e+02	2.582421e+01	2.251183e+00	-1.478879e+01	-3.239648e+02	2.163996e+06	5.409266e+04	4.741798e+02	-3.095094e+18	9.222058e-01	
1.158642e+02	2.999938e+01	3.810337e+00	-1.046611e+02	-9.847729e+00	3.705971e+06	9.300652e+04	4.849342e+02	-3.009426e+18	1.757925e-01	
1.156859e+02	1.373802e+01	7.202514e+00	2.541164e+03	8.681500e+02	7.280992e+06	1.674712e+05	4.698219e+02	-2.845492e+18	2.454167e+00	
1.157056e+02	1.478928e+01	6.296894e-01	-2.937809e+01	-1.524871e+02	6.130332e+05	1.511581e+04	4.701897e+02	-3.180902e+18	1.573952e+00	
1.157303e+02	1.611146e+01	8.358253e-01	-1.305657e+02	-1.363178e+02	8.044736e+05	1.991411e+04	4.671400e+02	-3.170338e+18	1.447425e+00	
1.157614e+02	1.777553e+01	6.130238e-01	-2.631874e+01	-1.705228e+02	5.870877e+05	1.432437e+04	4.576977e+02	-3.182644e+18	1.820740e+00	
1.158005e+02	1.986986e+01	6.292647e-01	-2.872144e-01	-1.646445e+02	6.000606e+05	1.472331e+04	4.583366e+02	-3.181766e+18	1.691503e+00	
1.158497e+02	2.250574e+01	1.119763e+00	4.360167e+00	-2.330887e+02	1.071854e+06	2.660318e+04	4.664402e+02	-3.155612e+18	1.337118e+00	
1.159117e+02	2.582308e+01	2.222726e+00	-2.332465e+01	-3.292523e+02	2.141741e+06	5.350934e+04	4.749973e+02	-3.096379e+18	9.496821e-01	
1.159896e+02	2.999791e+01	3.709630e+00	-1.561455e+02	-7.375101e+00	3.607154e+06	9.051751e+04	4.845570e+02	-3.014905e+18	2.684914e-01	
1.157000e+02	1.373776e+01	6.751266e+00	2.405117e+03	8.947499e+02	6.796782e+06	1.561051e+05	4.663537e+02	-2.870515e+18	2.506723e+00	
1.157278e+02	1.478887e+01	6.048757e-01	-2.304714e+01	-1.214149e+02	5.614752e+05	1.396907e+04	4.523611e+02	-3.183426e+18	1.329453e+00	
1.157628e+02	1.611086e+01	8.403000e-01	-1.295425e+02	-1.024220e+02	8.086425e+05	2.014973e+04	4.701440e+02	-3.169819e+18	1.255529e+00	
1.158068e+02	1.777468e+01	6.191221e-01	-3.105130e+01	-1.594605e+02	5.915912e+05	1.451430e+04	4.592060e+02	-3.182226e+18	1.694656e+00	
1.158622e+02	1.986870e+01	6.233171e-01	-2.341655e-01	-1.587128e+02	5.943723e+05	1.461299e+04	4.592261e+02	-3.182009e+18	1.644467e+00	
1.159319e+02	2.250420e+01	1.093716e+00	4.662023e+00	-2.362046e+02	1.050550e+06	2.603391e+04	4.672665e+02	-3.156865e+18	1.385880e+00	
1.160197e+02	2.582107e+01	2.169906e+00	-3.358119e+01	-3.285803e+02	2.098158e+06	5.240641e+04	4.763949e+02	-3.098807e+18	9.717321e-01	
1.161301e+02	2.999528e+01	3.610974e+00	-2.007702e+02	-4.432633e+00	3.506935e+06	8.797698e+04	4.836292e+02	-3.020498e+18	3.545468e-01	
1.157157e+02	1.373734e+01	6.378076e+00	2.197239e+03	8.598371e+02	6.452955e+06	1.491825e+05	4.707166e+02	-2.885755e+18	2.423084e+00	
1.157527e+02	1.478821e+01	4.683698e-01	-2.934260e+01	-7.484273e+01	4.325413e+05	1.084033e+04	4.530472e+02	-3.190314e+18	1.115259e+00	
1.157992e+02	1.610989e+01	8.500729e-01	-1.282127e+02	-8.404604e+01	8.185476e+05	2.046224e+04	4.719582e+02	-3.169132e+18	1.149949e+00	
1.158577e+02	1.777333e+01	6.261667e-01	-3.384594e+01	-1.535190e+02	5.991811e+05	1.474747e+04	4.613408e+02	-3.181713e+18	1.617709e+00	
1.159313e+02	1.986687e+01	6.156701e-01	2.087949e-01	-1.583275e+02	5.889968e+05	1.447299e+04	4.604536e+02	-3.182317e+18	1.658558e+00	
1.160240e+02	2.250176e+01	1.064169e+00	5.032310e+00	-2.405365e+02	1.026459e+06	2.538310e+04	4.681635e+02	-3.158298e+18	1.448912e+00	
1.161406e+02	2.581787e+01	2.102029e+00	-4.349025e+01	-3.134937e+02	2.033620e+06	5.082389e+04	4.767735e+02	-3.102291e+18	9.605271e-01	
1.162874e+02	2.999112e+01	3.528773e+00	-2.351908e+02	-7.369292e-01	3.422392e+06	8.582307e+04	4.826212e+02	-3.025240e+18	4.252129e-01	
1.157333e+02	1.373672e+01	5.755860e+00	1.928241e+03	7.255949e+02	5.975531e+06	1.395824e+05	4.860181e+02	-2.906889e+18	2.297830e+00	
1.157805e+02	1.478723e+01	8.144905e-01	3.222627e+01	-1.314171e+02	7.479023e+05	1.873017e+04	4.509160e+02	-3.172945e+18	1.083837e+00	
1.158399e+02	1.610846e+01	8.636149e-01	-1.269790e+02	-7.616363e+01	8.320973e+05	2.083450e+04	4.730331e+02	-3.168312e+18	1.092076e+00	
1.159146e+02	1.777133e+01	6.346297e-01	-3.514850e+01	-1.525167e+02	6.088042e+05	1.500308e+04	4.630895e+02	-3.181150e+18	1.586152e+00	
1.160087e+02	1.986415e+01	6.109594e-01	1.313186e+00	-1.606492e+02	5.865551e+05	1.439181e+04	4.613872e+02	-3.182495e+18	1.694143e+00	
1.161271e+02	2.249814e+01	1.042199e+00	6.827791e+00	-2.403309e+02	1.007420e+06	2.488853e+04	4.686664e+02	-3.159387e+18	1.477510e+00	
1.162760e+02	2.581310e+01	2.044935e+00	-4.857956e+01	-2.989933e+02	1.976273e+06	4.942099e+04	4.764360e+02	-3.105379e+18	9.450756e-01	
1.164635e+02	2.998493e+01	3.415751e+00	-2.649775e+02	1.552167e-01	3.308056e+06	8.292516e+04	4.815306e+02	-3.031620e+18	4.952497e-01	
1.157531e+02	1.373584e+01	5.719610e+00	1.836588e+03	7.135656e+02	5.772485e+06	1.351579e+05	4.739538e+02	-2.916630e+18	2.241155e+00	
1.158117e+02	1.478583e+01	7.216049e-01	1.540165e+01	-1.044993e+02	6.693005e+05	1.682941e+04	4.570687e+02	-3.177129e+18	9.480557e-01	
1.158855e+02	1.610641e+01	8.799148e-01	-1.256316e+02	-7.252596e+01	8.485436e+05	2.127007e+04	4.740069e+02	-3.167353e+18	1.049070e+00	
1.159784e+02	1.776846e+01	6.398862e-01	-3.584905e+01	-1.513240e+02	6.152045e+05	1.517605e+04	4.645860e+02	-3.180769e+18	1.560549e+00	
1.160953e+02	1.986026e+01	6.060224e-01	2.742307e+00	-1.627806e+02	5.837555e+05	1.430200e+04	4.622290e+02	-3.182693e+18	1.729163e+00	
1.162425e+02	2.249295e+01	1.018436e+00	8.960250e+00	-2.374871e+02	9.857883e+05	2.434181e+04	4.690118e+02	-3.160591e+18	1.493835e+00	
1.164277e+02	2.580629e+01	1.978993e+00	-5.174168e+01	-2.825276e+02	1.910319e+06	4.780658e+04	4.760889e+02	-3.108933e+18	9.260630e-01	
1.166607e+02	2.997607e+01	3.281962e+00	-2.926038e+02	1.007307e+00	3.173502e+06	7.951482e+04	4.802825e+02	-3.039128e+18	5.696107e-01	
1.157751e+02	1.373460e+01	5.930217e+00	1.848840e+03	7.277014e+02	5.912947e+06	1.386324e+05	4.695091e+02	-2.908981e+18	2.192966e+00	
1.158466e+02	1.478388e+01	7.331328e-01	4.993157e+00	-9.647138e+01	6.890109e+05	1.736590e+04	4.642146e+02	-3.175948e+18	8.467860e-01	
1.159366e+02	1.610356e+01	9.026188e-01	-1.243776e+02	-7.210744e+01	8.718398e+05	2.187338e+04	4.752336e+02	-3.166025e+18	1.012332e+00	
1.160498e+02	1.776447e+01	6.403537e-01	-3.613112e+01	-1.493149e+02	6.166992e+05	1.522617e+04	4.657760e+02	-3.180659e+18	1.538495e+00	
1.161923e+02	1.985484e+01	6.008828e-01	4.455906e+00	-1.643497e+02	5.805224e+05	1.420424e+04	4.629817e+02	-3.182908e+18	1.759677e+00	
1.163717e+02	2.248573e+01	9.926200e-01	1.147385e+01	-2.319831e+02	9.614407e+05	2.374014e+04	4.692571e+02	-3.161915e+18	1.497356e+00	
1.165974e+02	2.579680e+01	1.907028e+00	-5.332680e+01	-2.603128e+02	1.838481e+06	4.606249e+04	4.758752e+02	-3.112773e+18	8.889659e-01	
1.168814e+02	2.996373e+01	3.250394e+00	-3.218247e+02	3.854673e+00	3.140024e+06	7.860774e+04	4.793645e+02	-3.041125e+18	6.331618e-01	
1.157998e+02	1.373292e+01	5.988711e+00	1.825580e+03	7.238218e+02	6.022797e+06	1.416557e+05	4.749795e+02	-2.902325e+18	2.133570e+00	
1.158857e+02	1.478121e+01	7.227665e-01	5.577733e+00	-8.146847e+01	6.874231e+05	1.737202e+04	4.709837e+02	-3.175935e+18	7.207606e-01	
1.159938e+02	1.609966e+01	9.396189e-01	-1.226506e+02	-7.545734e+01	9.095611e+05	2.283957e+04	4.767575e+02	-3.163898e+18	9.726446e-01	
1.161297e+02	1.775903e+01	6.265988e-01	-3.676219e+01	-1.444528e+02	6.040011e+05	1.492180e+04	4.664523e+02	-3.181329e+18	1.524315e+00	
1.163009e+02	1.984744e+01	5.947771e-01	6.433105e+00	-1.647409e+02	5.760895e+05	1.408279e+04	4.637189e+02	-3.183176e+18	1.781197e+00	
1.165163e+02	2.247588e+01	9.632312e-01	1.416064e+01	-2.232774e+02	9.331429e+05	2.305454e+04	4.695426e+02	-3.163425e+18	1.485647e+00	
1.167873e+02	2.578386e+01	1.840149e+00	-5.258298e+01	-2.302235e+02	1.771312e+06	4.446073e+04	4.758744e+02	-3.116299e+18	8.185190e-01	
1.171285e+02	2.994689e+01	3.316114e+00	-3.396285e+02	4.568040e+00	3.199899e+06	8.005181e+04	4.786552e+02	-3.037946e+18	6.556575e-01	
1.158275e+02	1.373065e+01	5.856008e+00	1.763845e+03	6.988661e+02	5.929805e+06	1.398372e+05	4.790541e+02	-2.906328e+18	2.096986e+00	
1.159294e+02	1.477763e+01	7.509657e-01	1.225135e+01	-6.539370e+01	7.356710e+05	1.864232e+04	4.864346e+02	-3.173138e+18	5.561245e-01	
1.160577e+02	1.609442e+01	1.041524e+00	-1.186223e+02	-9.241011e+01	1.011786e+06	2.543192e+04	4.791376e+02	-3.158191e+18	9.143747e-01	
1.162191e+02	1.775170e+01	6.530158e-01	-3.074140e+01	-1.527555e+02	6.307543e+05	1.557905e+04	4.673515e+02	-3.179882e+18	1.527694e+00	
1.164223e+02	1.983749e+01	6.042073e-01	1.264040e+01	-1.675950e+02	5.863943e+05	1.433119e+04	4.645503e+02	-3.182629e+18	1.785943e+00	
1.166780e+02	2.246262e+01	9.495781e-01	2.151446e+01	-2.092494e+02	9.186093e+05	2.275492e+04	4.700705e+02	-3.164084e+18	1.416031e+00	
1.169998e+02	2.576644e+01	1.564879e+00	-7.576380e+01	-1.613877e+02	1.498321e+06	3.772082e+04	4.741690e+02	-3.131137e+18	7.270879e-01	
1.174048e+02	2.992424e+01	9.045254e-01	-2.781810e+02	2.868061e-01	8.589837e+05	2.074343e+04	4.498829e+02	-3.168512e+18	2.009631e+00	
3.981992e+02	2.018309e+00	6.498803e+00	1.986179e+03	-8.240259e+00	6.541178e+06	1.546905e+05	4.789527e+02	-2.873629e+18	1.984221e+00	
3.030558e+00	3.293905e+01	8.133205e+01	1.128987e+03	-5.523680e+01	8.220644e+07	1.452237e+06	5.100208e+02	-1.709079e+16	1.314429e-01	
1.157692e+02	1.362717e+01	1.276620e+01	3.350428e+03	1.503861e+02	1.283526e+07	2.990774e+05	4.849579e+02	-2.555762e+18	1.743764e+00	
1.157614e+02	1.371956e+01	7.273308e+00	2.203650e+03	6.808454e+02	7.320426e+06	1.718457e+05	4.772085e+02	-2.835862e+18	2.070267e+00	
1.158335e+02	1.371709e+01	6.510022e+00	1.943162e+03	6.991235e+02	6.552926e+06	1.543548e+05	4.771886e+02	-2.874368e+18	2.063725e+00	
1.162259e+02	1.355335e+01	8.421820e+00	2.434512e+03	5.673386e+02	8.465081e+06	1.990168e+05	4.797326e+02	-2.776045e+18	1.942499e+00	
1.159044e+02	1.359207e+01	1.103292e+01	3.014587e+03	3.359625e+02	1.109140e+07	2.595091e+05	4.831332e+02	-2.642872e+18	1.814031e+00	
1.158562e+02	1.365104e+01	9.549879e+00	2.696197e+03	4.855433e+02	9.599456e+06	2.252637e+05	4.812934e+02	-2.718263e+18	1.883845e+00	
1.159137e+02	1.371822e+01	6.165661e+00	1.841025e+03	7.103995e+02	6.202454e+06	1.461739e+05	4.764018e+02	-2.892378e+18	2.080703e+00	
1.160972e+02	1.353641e+01	9.944921e+00	2.784924e+03	4.370504e+02	9.997036e+06	2.344296e+05	4.818324e+02	-2.698084e+18	1.863725e+00	
1.159881e+02	1.354866e+01	1.105115e+01	3.019474e+03	3.300129e+02	1.110982e+07	2.599248e+05	4.831492e+02	-2.641956e+18	1.813670e+00	
1.158833e+02	1.368335e+01	7.621918e+00	2.232479e+03	6.367064e+02	7.661529e+06	1.803140e+05	4.785376e+02	-2.817219e+18	1.988666e+00	
1.159894e+02	1.379108e+01	6.225621e+00	1.959925e+03	7.599895e+02	6.133501e+06	1.432906e+05	4.631698e+02	-2.898726e+18	2.229474e+00	
1.159596e+02	1.363383e+01	8.697058e+00	2.498213e+03	5.551704e+02	8.741822e+06	2.054397e+05	4.801362e+02	-2.761905e+18	1.927293e+00	
1.159461e+02	1.341049e+01	1.383995e+01	3.536460e+03	6.395258e+00	1.391512e+07	3.233537e+05	4.859784e+02	-2.502318e+18	1.702587e+00	
1.159815e+02	1.371654e+01	6.137838e+00	1.834278e+03	7.093709e+02	6.172382e+06	1.454603e+05	4.761721e+02	-2.893949e+18	2.083350e+00	
1.174489e+02	1.077756e+01	1.328259e+01	3.438835e+03	-5.499520e+01	1.335200e+07	3.107325e+05	4.853966e+02	-2.530104e+18	1.721958e+00	
1.159242e+02	1.345999e+01	1.375358e+01	3.522870e+03	1.989445e+01	1.382851e+07	3.214093e+05	4.859012e+02	-2.506599e+18	1.706184e+00	
1.160615e+02	1.341862e+01	1.317082e+01	3.422814e+03	8.199368e+01	1.324211e+07	3.082454e+05	4.853491e+02	-2.535579e+18	1.727943e+00	
1.160828e+02	1.380484e+01	6.069836e+00	1.855401e+03	7.280684e+02	6.067005e+06	1.425350e+05	4.718433e+02	-2.900389e+18	2.144918e+00	
1.179803e+02	1.156966e+01	1.329972e+01	3.443436e+03	-4.905516e+01	1.336988e+07	3.111262e+05	4.854222e+02	-2.529237e+18	1.722082e+00	
1.181658e+02	1.036817e+01	1.323008e+01	3.429557e+03	-6.536007e+01	1.329907e+07	3.095429e+05	4.853433e+02	-2.532723e+18	1.723906e+00	
1.167962e+02	1.252342e+01	1.361426e+01	3.495758e+03	-2.919898e+01	1.368650e+07	3.182439e+05	4.857387e+02	-2.513567e+18	1.709623e+00	
1.170594e+02	1.138616e+01	1.338827e+01	3.456669e+03	-4.524044e+01	1.345837e+07	3.131255e+05	4.855033e+02	-2.524835e+18	1.717788e+00	
1.172490e+02	1.000333e+01	1.320777e+01	3.426868e+03	-5.882694e+01	1.327688e+07	3.090377e+05	4.853214e+02	-2.533835e+18	1.725269e+00	
1.163219e+02	1.239766e+01	1.363016e+01	3.498099e+03	-2.237400e+01	1.370227e+07	3.185993e+05	4.857489e+02	-2.512785e+18	1.708856e+00	
1.167419e+02	1.315013e+01	1.106732e+01	3.024681e+03	2.909794e+02	1.112509e+07	2.602839e+05	4.831461e+02	-2.641166e+18	1.811873e+00	
1.161123e+02	1.324564e+01	1.380362e+01	3.529591e+03	-2.116521e+00	1.387815e+07	3.225300e+05	4.859378e+02	-2.504132e+18	1.703542e+00	
1.163112e+02	1.311924e+01	1.369696e+01	3.511804e+03	-1.659538e+00	1.377071e+07	3.201221e+05	4.858339e+02	-2.509433e+18	1.707512e+00	
1.161487e+02	1.366810e+01	6.435100e+00	1.923125e+03	6.945947e+02	6.466824e+06	1.523263e+05	4.762720e+02	-2.878834e+18	2.068583e+00	
1.193908e+02	1.081630e+01	1.294529e+01	3.383996e+03	-3.813439e+01	1.301352e+07	3.030962e+05	4.850702e+02	-2.546915e+18	1.736462e+00	
1.172316e+02	1.201101e+01	1.349168e+01	3.474849e+03	-4.284091e+01	1.356284e+07	3.154687e+05	4.856116e+02	-2.519677e+18	1.714181e+00	
1.166616e+02	1.076602e+01	1.331092e+01	3.444489e+03	-4.585259e+01	1.338070e+07	3.113737e+05	4.854245e+02	-2.528692e+18	1.721222e+00	
1.166350e+02	1.194551e+01	1.351330e+01	3.477966e+03	-3.293532e+01	1.358437e+07	3.159555e+05	4.856299e+02	-2.518605e+18	1.713057e+00	
1.160837e+02	1.401512e+01	1.091902e+00	1.482910e+03	3.711365e+01	1.049040e+06	8.813845e+02	1.900216e+01	-3.212239e+18	5.262841e+01	
1.166415e+02	8.811975e+00	1.317888e+01	3.421573e+03	-6.718729e+01	1.324775e+07	3.083836e+05	4.852929e+02	-2.535275e+18	1.726283e+00	
1.163294e+02	1.335176e+01	1.140313e+01	3.091324e+03	2.734511e+02	1.146333e+07	2.679908e+05	4.835296e+02	-2.624199e+18	1.797994e+00	
1.162069e+02	1.258572e+01	1.368314e+01	3.507203e+03	-1.809983e+01	1.375575e+07	3.197977e+05	4.858031e+02	-2.510147e+18	1.706971e+00	
1.160989e+02	1.294110e+01	1.378667e+01	3.524991e+03	-1.227769e+01	1.386031e+07	3.221391e+05	4.859099e+02	-2.504992e+18	1.703345e+00	
1.175147e+02	1.266103e+01	1.156513e+01	3.126398e+03	2.001427e+02	1.162532e+07	2.716818e+05	4.836768e+02	-2.616074e+18	1.790650e+00	
1.214656e+02	1.156191e+01	8.506908e+00	2.476084e+03	4.485902e+02	8.549330e+06	2.009837e+05	4.798138e+02	-2.771715e+18	1.936459e+00	
1.207393e+02	9.423279e+00	1.300859e+01	3.393720e+03	-5.565696e+01	1.307679e+07	3.045273e+05	4.851269e+02	-2.543764e+18	1.733498e+00	
1.163815e+02	1.140761e+01	1.341912e+01	3.462644e+03	-3.406993e+01	1.348959e+07	3.138232e+05	4.855335e+02	-2.523300e+18	1.716924e+00	
1.229540e+02	9.944451e+00	1.042160e+01	2.900363e+03	2.552741e+02	1.047409e+07	2.453968e+05	4.823401e+02	-2.673940e+18	1.839870e+00	
1.162404e+02	1.383917e+01	5.632910e+00	1.712987e+03	7.245089e+02	5.678398e+06	1.336922e+05	4.757695e+02	-2.919857e+18	2.142839e+00	
1.160250e+02	9.686001e+00	1.326499e+01	3.436896e+03	-5.574027e+01	1.333448e+07	3.103320e+05	4.853760e+02	-2.530985e+18	1.723177e+00	
1.185629e+02	9.053195e+00	1.315045e+01	3.415231e+03	-7.055788e+01	1.321879e+07	3.077401e+05	4.852652e+02	-2.536691e+18	1.726669e+00	
1.164256e+02	1.279223e+01	1.371951e+01	3.513765e+03	-2.078452e+01	1.379264e+07	3.206223e+05	4.858435e+02	-2.508331e+18	1.705848e+00	
1.230152e+01	2.124621e+01	8.103541e+01	1.315769e+03	-1.856421e+02	8.190442e+07	1.448915e+06	5.099657e+02	-2.440385e+16	1.547790e-01	
1.683303e+01	1.935139e+01	8.092782e+01	1.373250e+03	-2.519912e+02	8.179489e+07	1.447706e+06	5.099455e+02	-2.706587e+16	1.627264e-01	
1.274218e+01	1.620698e+01	8.091866e+01	1.391431e+03	-1.648862e+02	8.178555e+07	1.447602e+06	5.099437e+02	-2.729306e+16	1.633163e-01	
2.143618e+01	1.780919e+01	8.078072e+01	1.446662e+03	-3.234858e+02	8.164514e+07	1.446050e+06	5.099179e+02	-3.071071e+16	1.729188e-01	
1.753086e+01	1.371242e+01	8.078486e+01	1.470988e+03	-2.083253e+02	8.164946e+07	1.446097e+06	5.099186e+02	-3.060832e+16	1.732972e-01	
1.191215e+02	1.278102e+01	7.438291e+00	2.206770e+03	5.672454e+02	7.475670e+06	1.759801e+05	4.781730e+02	-2.826760e+18	1.999158e+00	
1.214628e+02	1.408695e+01	5.444722e+00	1.674740e+03	6.583910e+02	5.477684e+06	1.290370e+05	4.746947e+02	-2.930105e+18	2.145654e+00	
1.229317e+02	1.622580e+01	2.938396e+00	8.911773e+02	6.271271e+02	2.975346e+06	6.985393e+04	4.707001e+02	-3.060396e+18	2.390588e+00	
1.253444e+02	1.265797e+01	5.792185e+00	1.772397e+03	6.338772e+02	5.820884e+06	1.371625e+05	4.750763e+02	-2.912217e+18	2.112257e+00	
1.268709e+02	1.849690e+01	2.191883e+00	6.714429e+02	5.714916e+02	2.226154e+06	5.177375e+04	4.661152e+02	-3.100199e+18	2.597264e+00	
3.874299e+02	1.801812e+01	5.909153e+00	1.720568e+03	-6.324990e+01	5.963206e+06	1.420755e+05	4.823387e+02	-2.901401e+18	1.879410e+00	
3.833040e+02	1.770558e+01	6.000617e+00	1.748767e+03	-6.908639e+01	6.055478e+06	1.442023e+05	4.823008e+02	-2.896719e+18	1.882151e+00	
3.863632e+02	1.402325e+01	5.998242e+00	1.796340e+03	-7.568863e+01	6.049008e+06	1.436718e+05	4.807704e+02	-2.897886e+18	1.937618e+00	
3.814204e+02	1.342191e+01	6.019664e+00	1.815099e+03	-7.953336e+01	6.070296e+06	1.440662e+05	4.804350e+02	-2.897018e+18	1.951950e+00	
3.785057e+02	1.747193e+01	6.090739e+00	1.776367e+03	-6.835223e+01	6.146639e+06	1.463057e+05	4.822952e+02	-2.892088e+18	1.884274e+00	
3.764371e+02	1.314670e+01	6.015871e+00	1.824991e+03	-7.205166e+01	6.066581e+06	1.438971e+05	4.801750e+02	-2.897391e+18	1.964009e+00	
3.735696e+02	1.732656e+01	6.165750e+00	1.800636e+03	-5.872437e+01	6.224659e+06	1.481030e+05	4.824408e+02	-2.888131e+18	1.886722e+00	
3.714480e+02	1.300690e+01	5.995574e+00	1.829740e+03	-5.441341e+01	6.046802e+06	1.433614e+05	4.799700e+02	-2.898570e+18	1.975393e+00	
3.685973e+02	1.724175e+01	6.218526e+00	1.819443e+03	-4.023239e+01	6.279500e+06	1.493543e+05	4.825026e+02	-2.885377e+18	1.890027e+00	
3.664572e+02	1.293378e+01	5.965385e+00	1.830820e+03	-2.920630e+01	6.017186e+06	1.426035e+05	4.797885e+02	-2.900238e+18	1.986067e+00	
3.636129e+02	1.719442e+01	6.247983e+00	1.832617e+03	-1.402763e+01	6.310152e+06	1.500342e+05	4.824798e+02	-2.883880e+18	1.894630e+00	
3.614650e+02	1.289574e+01	5.938488e+00	1.831019e+03	1.120359e+00	5.991152e+06	1.419406e+05	4.796661e+02	-2.901698e+18	1.995055e+00	
3.586236e+02	1.716908e+01	6.255150e+00	1.839999e+03	1.740397e+01	6.318216e+06	1.501826e+05	4.824219e+02	-2.883553e+18	1.900297e+00	
3.564715e+02	1.287636e+01	5.929596e+00	1.833463e+03	3.330482e+01	5.983417e+06	1.417218e+05	4.796268e+02	-2.902179e+18	2.001050e+00	
3.536321e+02	1.715606e+01	6.240005e+00	1.841420e+03	5.019344e+01	6.303524e+06	1.497954e+05	4.823167e+02	-2.884406e+18	1.907096e+00	
3.514773e+02	1.286681e+01	5.952879e+00	1.841827e+03	6.374117e+01	6.008262e+06	1.422827e+05	4.796909e+02	-2.900945e+18	2.003253e+00	
3.486394e+02	1.714966e+01	6.205402e+00	1.837712e+03	7.941470e+01	6.269905e+06	1.489645e+05	4.822423e+02	-2.886235e+18	1.914804e+00	
3.464825e+02	1.286227e+01	6.012266e+00	1.857286e+03	8.896813e+01	6.069415e+06	1.437105e+05	4.798447e+02	-2.897801e+18	2.001406e+00	
3.436463e+02	1.714666e+01	6.157986e+00	1.829311e+03	9.994829e+01	6.223622e+06	1.478482e+05	4.822100e+02	-2.888692e+18	1.921453e+00	
3.414876e+02	1.286021e+01	6.098314e+00	1.877584e+03	1.056209e+02	6.156446e+06	1.457592e+05	4.800030e+02	-2.893291e+18	1.996025e+00	
3.386529e+02	1.714532e+01	6.104484e+00	1.817721e+03	1.094139e+02	6.173239e+06	1.466560e+05	4.823882e+02	-2.891317e+18	1.925775e+00	
3.364925e+02	1.285932e+01	6.190810e+00	1.898160e+03	1.137066e+02	6.252843e+06	1.480466e+05	4.804395e+02	-2.888256e+18	1.988035e+00	
3.336595e+02	1.714476e+01	6.053345e+00	1.805969e+03	1.107299e+02	6.124600e+06	1.455119e+05	4.825489e+02	-2.893836e+18	1.928826e+00	
3.314974e+02	1.285896e+01	6.261729e+00	1.912550e+03	1.136977e+02	6.325198e+06	1.497726e+05	4.806837e+02	-2.884456e+18	1.980462e+00	
3.286660e+02	1.714454e+01	6.000366e+00	1.794262e+03	9.360982e+01	6.073545e+06	1.443134e+05	4.826775e+02	-2.896474e+18	1.931503e+00	
3.265023e+02	1.285883e+01	6.307960e+00	1.921976e+03	9.218307e+01	6.372136e+06	1.508999e+05	4.808482e+02	-2.881974e+18	1.974474e+00	
3.236726e+02	1.714446e+01	5.921161e+00	1.776712e+03	6.150903e+01	5.995328e+06	1.424716e+05	4.827150e+02	-2.900529e+18	1.935947e+00	
3.215072e+02	1.285878e+01	6.325017e+00	1.925858e+03	5.914444e+01	6.390139e+06	1.513370e+05	4.809734e+02	-2.881012e+18	1.971666e+00	
3.186791e+02	1.714443e+01	5.841996e+00	1.760656e+03	2.276846e+01	5.916982e+06	1.406100e+05	4.826890e+02	-2.904627e+18	1.942808e+00	
3.165122e+02	1.285876e+01	6.304699e+00	1.921803e+03	1.621574e+01	6.370816e+06	1.508854e+05	4.810359e+02	-2.882006e+18	1.972674e+00	
3.136856e+02	1.714442e+01	5.786725e+00	1.751158e+03	-1.837783e+01	5.862340e+06	1.392929e+05	4.826152e+02	-2.907527e+18	1.950402e+00	
3.115171e+02	1.285876e+01	6.259953e+00	1.913598e+03	-3.301788e+01	6.327764e+06	1.498557e+05	4.810673e+02	-2.884273e+18	1.978042e+00	
3.086922e+02	1.714442e+01	5.774725e+00	1.752780e+03	-5.703469e+01	5.851329e+06	1.389934e+05	4.825539e+02	-2.908186e+18	1.957219e+00	
3.065220e+02	1.285875e+01	6.207444e+00	1.904505e+03	-8.230772e+01	6.277326e+06	1.486346e+05	4.810673e+02	-2.886961e+18	1.986379e+00	
3.036987e+02	1.714442e+01	5.827174e+00	1.770772e+03	-9.022080e+01	5.905795e+06	1.402304e+05	4.825816e+02	-2.905463e+18	1.961421e+00	
3.015269e+02	1.285875e+01	6.187283e+00	1.904897e+03	-1.260829e+02	6.259345e+06	1.481560e+05	4.810370e+02	-2.888015e+18	1.995644e+00	
2.987053e+02	1.714441e+01	5.956141e+00	1.806479e+03	-1.162176e+02	6.037019e+06	1.432820e+05	4.826882e+02	-2.898745e+18	1.960061e+00	
2.965318e+02	1.285875e+01	6.232768e+00	1.922829e+03	-1.603038e+02	6.307240e+06	1.492124e+05	4.810327e+02	-2.885689e+18	2.002710e+00	
2.937119e+02	1.714431e+01	6.159150e+00	1.857477e+03	-1.358131e+02	6.242235e+06	1.480926e+05	4.828917e+02	-2.888154e+18	1.951487e+00	
2.915377e+02	1.285852e+01	6.346580e+00	1.956161e+03	-1.826283e+02	6.422553e+06	1.518644e+05	4.810541e+02	-2.879851e+18	2.003635e+00	
2.887196e+02	1.714233e+01	6.416241e+00	1.919306e+03	-1.502512e+02	6.500983e+06	1.541688e+05	4.831217e+02	-2.874778e+18	1.938159e+00	
2.865528e+02	1.285502e+01	6.486592e+00	1.993098e+03	-1.954183e+02	6.563209e+06	1.551341e+05	4.811127e+02	-2.872652e+18	1.999436e+00	
2.837317e+02	1.712077e+01	6.698964e+00	1.986963e+03	-1.572997e+02	6.785085e+06	1.608298e+05	4.833423e+02	-2.860113e+18	1.923922e+00	
2.816268e+02	1.282583e+01	6.590995e+00	2.019804e+03	-1.909231e+02	6.666465e+06	1.575447e+05	4.810824e+02	-2.867345e+18	1.994480e+00	
2.787229e+02	1.697372e+01	6.970671e+00	2.054854e+03	-1.551637e+02	7.059372e+06	1.672304e+05	4.835803e+02	-2.846022e+18	1.913414e+00	
2.769811e+02	1.267768e+01	6.619292e+00	2.029029e+03	-1.563572e+02	6.691444e+06	1.581268e+05	4.808676e+02	-2.866064e+18	1.992798e+00	
2.732769e+02	1.622591e+01	7.148012e+00	2.113804e+03	-1.395038e+02	7.236048e+06	1.712346e+05	4.832813e+02	-2.837207e+18	1.920383e+00	
2.714615e+02	1.210162e+01	6.263223e+00	1.938063e+03	-6.216678e+01	6.321785e+06	1.495003e+05	4.797365e+02	-2.885055e+18	2.006048e+00	
2.684156e+02	1.784614e+01	7.454820e+00	2.157250e+03	-1.111231e+02	7.546265e+06	1.787051e+05	4.842445e+02	-2.820761e+18	1.878177e+00	
2.663759e+02	1.290391e+01	5.952199e+00	1.850414e+03	4.363557e+01	6.005282e+06	1.421420e+05	4.792854e+02	-2.901254e+18	2.013088e+00	
2.637898e+02	1.730752e+01	7.185270e+00	2.105330e+03	-3.917003e+01	7.264324e+06	1.720357e+05	4.831147e+02	-2.835444e+18	1.899645e+00	
2.613098e+02	1.340937e+01	5.508056e+00	1.732540e+03	1.450107e+02	5.555498e+06	1.315452e+05	4.783683e+02	-2.924583e+18	2.041344e+00	
2.585118e+02	1.723359e+01	6.336147e+00	1.898389e+03	1.256733e+02	6.393220e+06	1.516007e+05	4.809889e+02	-2.880431e+18	1.943524e+00	
2.570388e+02	1.258381e+01	5.369352e+00	1.697520e+03	1.842166e+02	5.413642e+06	1.281583e+05	4.778033e+02	-2.932039e+18	2.056601e+00	
2.540719e+02	1.738404e+01	5.728562e+00	1.747316e+03	2.335889e+02	5.772244e+06	1.368949e+05	4.791225e+02	-2.912806e+18	1.990484e+00	
2.520526e+02	1.283106e+01	5.573062e+00	1.738831e+03	2.090293e+02	5.615903e+06	1.329891e+05	4.781305e+02	-2.921405e+18	2.033477e+00	
2.492958e+02	1.657495e+01	5.693994e+00	1.732789e+03	2.707460e+02	5.727910e+06	1.358323e+05	4.782450e+02	-2.915145e+18	1.993936e+00	
2.469001e+02	1.276086e+01	5.925897e+00	1.815509e+03	2.238113e+02	5.967358e+06	1.413447e+05	4.786773e+02	-2.903010e+18	1.999468e+00	
2.443445e+02	1.703039e+01	6.006233e+00	1.783117e+03	3.007862e+02	6.025564e+06	1.429839e+05	4.779576e+02	-2.899401e+18	1.952438e+00	
2.418531e+02	1.281868e+01	6.320148e+00	1.896336e+03	2.414809e+02	6.358617e+06	1.506441e+05	4.792012e+02	-2.882537e+18	1.961571e+00	
2.391914e+02	1.694150e+01	6.413326e+00	1.855850e+03	3.197109e+02	6.416740e+06	1.523178e+05	4.777518e+02	-2.878853e+18	1.908233e+00	
2.368717e+02	1.284828e+01	6.734717e+00	1.978446e+03	2.609556e+02	6.767647e+06	1.603404e+05	4.795550e+02	-2.861191e+18	1.924534e+00	
2.340162e+02	1.707367e+01	6.810816e+00	1.916118e+03	3.379226e+02	6.790918e+06	1.612675e+05	4.772099e+02	-2.859150e+18	1.861058e+00	
2.321872e+02	1.286206e+01	7.141032e+00	2.057729e+03	2.810475e+02	7.167686e+06	1.697885e+05	4.798114e+02	-2.840391e+18	1.891911e+00	
2.283459e+02	1.546072e+01	7.294432e+00	2.017814e+03	3.283284e+02	7.261261e+06	1.723246e+05	4.772001e+02	-2.834808e+18	1.829906e+00	
2.263474e+02	1.271455e+01	7.640628e+00	2.143242e+03	2.974248e+02	7.650978e+06	1.812242e+05	4.797570e+02	-2.815215e+18	1.846595e+00	
2.232575e+02	1.717613e+01	4.911072e+00	1.447159e+03	-5.317842e+01	4.759585e+06	1.134145e+05	4.618141e+02	-2.964498e+18	1.937771e+00	
2.216436e+02	1.256432e+01	7.965885e+00	2.190803e+03	2.863255e+02	7.956406e+06	1.884758e+05	4.793282e+02	-2.799251e+18	1.812184e+00	
2.173337e+02	1.755592e+01	4.203721e+00	1.286270e+03	-1.567929e+02	4.090491e+06	9.738825e+04	4.616982e+02	-2.999779e+18	2.019114e+00	
2.170142e+02	1.314384e+01	5.321181e+00	1.566970e+03	-1.359472e+02	5.237942e+06	1.247040e+05	4.693191e+02	-2.939644e+18	1.929563e+00	
2.125947e+02	1.628994e+01	4.451219e+00	1.356855e+03	-1.911529e+02	4.376288e+06	1.041736e+05	4.668159e+02	-2.984842e+18	2.007062e+00	
2.101136e+02	1.317521e+01	4.509494e+00	1.400528e+03	-2.567322e+02	4.501056e+06	1.069586e+05	4.730496e+02	-2.978710e+18	2.044795e+00	
2.079575e+02	1.757378e+01	4.785054e+00	1.426607e+03	-1.878284e+02	4.693511e+06	1.117982e+05	4.667773e+02	-2.968056e+18	1.963764e+00	
2.063259e+02	1.365773e+01	4.746329e+00	1.462262e+03	-2.669285e+02	4.744256e+06	1.127293e+05	4.741863e+02	-2.966006e+18	2.027757e+00	
2.034316e+02	1.748745e+01	5.098455e+00	1.505266e+03	-2.062633e+02	5.025386e+06	1.196847e+05	4.695985e+02	-2.950694e+18	1.942676e+00	
2.012770e+02	1.310067e+01	5.034439e+00	1.549957e+03	-3.019201e+02	5.058272e+06	1.200672e+05	4.767102e+02	-2.949852e+18	2.027847e+00	
1.985172e+02	1.745594e+01	5.472555e+00	1.598520e+03	-2.229722e+02	5.420249e+06	1.290478e+05	4.724609e+02	-2.930081e+18	1.919758e+00	