 TITLE = "Adapted Mesh"
 VARIABLES = "X", "Y"
 ZONE T = "Domain", N=        7409 E=       14294 
 DATAPACKING=POINT, ZONETYPE=FEQUADRILATERAL
   115.652200000000        13.7382300000000     
   115.652200000000        14.7896122899470     
   115.652200000000        16.1119466301946     
   115.652200000000        17.7762056196718     
   115.652200000000        19.8707748919024     
   115.652200000000        22.5069598288973     
   115.652200000000        25.8246913631930     
   115.652200000000        30.0000000000000     
   115.662200000000        13.7382299995359     
   115.668018825858        14.7896122892128     
   115.675337223113        16.1119466291208     
   115.684547985713        17.7762056181705     
   115.696140280880        19.8707748898631     
   115.710730121936        22.5069598261809     
   115.729091951041        25.8246913596245     
   115.752200000000        29.9999999860769     
   115.673399828472        13.7381680140919     
   115.685735639483        14.7895142355183     
   115.701250516132        16.1118032120201     
   115.720777174854        17.7760051077507     
   115.745352641767        19.8705025240864     
   115.776282854550        22.5065970246292     
   115.815209617297        25.8242147414576     
   115.864198284721        29.9993801212521     
   115.685942965079        13.7380208405238     
   115.705577408853        14.7892814242136     
   115.730271851153        16.1114626932616     
   115.761351695230        17.7755290309168     
   115.800467536330        19.8698558393064     
   115.849697986057        22.5057356159590     
   115.911656241885        25.8230830951912     
   115.989629650791        29.9979083739534     
   115.699989795288        13.7377584865577     
   115.727797844947        14.7888664110430     
   115.762772315610        16.1108556790542     
   115.806790361521        17.7746803687072     
   115.862189702815        19.8687030486325     
   115.931914254552        22.5042000550299     
   116.019665059956        25.8210658043834     
   116.130097952880        29.9952848212987     
   115.715719485094        13.7373423420753     
   115.752680367332        14.7882081193327     
   115.799166449865        16.1098928363082     
   115.857672739635        17.7733342251701     
   115.931306401640        19.8668744981234     
   116.023980320791        22.5017643563534     
   116.140613713805        25.8178659883049     
   116.287394850944        29.9911233619440     
   115.733332011404        13.7367228763120     
   115.780541315993        14.7872281972284     
   115.839916944947        16.1084595645914     
   115.914645714580        17.7713303782630     
   116.008696336946        19.8641525482116     
   116.127066652044        22.4981386157658     
   116.276039864877        25.8131027952463     
   116.463520114043        29.9849286880627     
   115.753050336998        13.7358367414360     
   115.811733391872        14.7858264358984     
   115.885539674818        16.1064092946166     
   115.978430526045        17.7684639105169     
   116.095339213459        19.8602588467511     
   116.242478252190        22.4929520576442     
   116.427657917501        25.8062891313764     
   116.660703369991        29.9760673211394     
   115.775122705272        13.7346031340164     
   115.846649286874        14.7838750138021     
   115.936609005763        16.1035550696879     
   116.049830191411        17.7644734391160     
   116.192325819631        19.8548383412030     
   116.371668092851        22.4857317385317     
   116.597376663580        25.7968036833565     
   116.881427052747        29.9637312266430     
   115.799825009498        13.7329192305196     
   115.885725431758        14.7812112761823     
   115.993763278197        16.0996589847086     
   116.129737169839        17.7590263506510     
   116.300868438246        19.8474392220816     
   116.516250980708        22.4758758310459     
   116.787317500302        25.7838558209852     
   117.128450095023        29.9468921689925     
   115.827463161390        13.7306544701587     
   115.929445742940        14.7776286912037     
   116.057710286885        16.0944189582813     
   116.219141024111        17.7517003072869     
   116.422311253975        19.8374878016325     
   116.678017420766        22.4626201613250     
   116.999832642535        25.7664416369102     
   117.404831613976        29.9242445400459     
   397.783784088979        2.13360071076523     
   3.03885388450361        32.9346061405137     
   115.779528401138        13.6502428681916     
   115.781376648393        13.7171321158551     
   115.850319479284        13.7257723406586     
   116.340508087109        13.4519024826271     
   115.921906542636        13.5969558899917     
   115.884617863930        13.6583472102938     
   115.933580417635        13.7472982867260     
   116.156083170732        13.5371783743761     
   116.019203330962        13.5396146924827     
   115.924827728084        13.7031486861269     
   116.003048387252        13.8339298106147     
   116.040633890536        13.6302979683885     
   115.929521484577        13.4173146550507     
   116.095142984603        13.7448905331174     
   117.633060900510        10.7320337551567     
   115.907170141189        13.5152340817286     
   116.101248259389        13.4232575795252     
   116.217608073566        13.8241304784446     
   118.162509897817        11.5737432634794     
   118.128823499031        10.3601629309983     
   116.734012497654        12.4569889742284     
   117.217557936595        11.2969706361790     
   117.512253578930        9.91765021038366     
   116.421716626446        12.2982743758978     
   116.755034680698        13.0412379128632     
   116.046417651201        13.2406013934832     
   116.421191205953        13.0089564189272     
   116.330556870569        13.6349794529218     
   119.179316343705        10.8297647905011     
   117.507636186463        11.8548646842504     
   116.772384188168        10.8045078763461     
   116.790884256387        11.8462405158449     
   116.250600669867        14.0163010395710     
   117.069636313007        8.98894188069898     
   116.356849040326        13.2635316835989     
   116.160651507137        12.5714785736340     
   116.147577679062        12.9710526679456     
   117.504915444113        12.6120948220729     
   121.079322606094        11.5649162310483     
   120.887648196357        9.30333620252968     
   116.634430404796        11.3722239473399     
   122.612591264393        9.78872235231277     
   116.385963912943        13.8135617886189     
   116.016864363814        9.77625108650317     
   118.572830134488        9.28568480316842     
   116.409346333693        12.7296516777118     
   12.7053975065609        21.0175317199452     
   17.6035070788653        18.8944981315403     
   13.3760801415408        15.8568064784563     
   22.6142124099330        17.2304358137363     
   18.9015981905283        12.9860993020578     
   118.776585254137        12.7762695145535     
   120.784152808544        13.8280182900720     
   123.161977200869        15.7704303785891     
   126.107672004318        12.1331433612911     
   126.877214154888        17.5619178366938     
   387.273271220434        17.4047551270294     
   382.759420357863        17.4494366534920     
   385.609953262469        13.3748394829479     
   381.150131111490        13.2780062652766     
   377.299155378503        17.4442245306572     
   376.610939075994        13.1513844451081     
   373.493283052918        16.9917901625929     
   371.905925563516        13.1042826051528     
   368.435802287957        17.0392218955283     
   368.408529203623        12.8319911141569     
   363.388154589969        17.2369304503686     
   362.763975382507        12.4713222972755     
   358.757770254543        17.1304600343597     
   357.177327590174        13.2982951300579     
   354.905380914270        17.4554802884574     
   352.417862023747        13.2748817198601     
   350.117046405323        17.4715479729054     
   348.371342901726        12.0140447579122     
   344.634230720240        17.0034248560268     
   342.170354851624        12.3133734846494     
   339.740952378260        16.7977141927739     
   336.517817515892        12.5607812365067     
   332.400869180144        17.6685339297667     
   330.065528146526        12.7376932307273     
   327.063927068082        17.5135372047475     
   325.630943378565        12.2999978532026     
   321.886109374523        16.9198259514309     
   321.324409295524        12.8911825245206     
   318.779950891668        16.1427043887061     
   317.477680518805        13.2762489753977     
   313.788782835665        17.1267146517407     
   313.109613661207        12.9632346698484     
   308.649228637293        17.4094449116262     
   308.090172269318        12.3870046469962     
   303.253176365423        18.3270966193143     
   302.331558689049        13.8066774825628     
   299.109732628392        16.9136510625699     
   296.822875497758        13.5450440081819     
   294.198355724874        17.2846424757085     
   291.853826447330        12.9875062885607     
   289.189799628224        17.1101037274917     
   285.977544699722        13.7004184759045     
   283.925733689520        16.8611902492299     
   281.009620291126        12.8502072379719     
   278.613127068490        16.9033763392943     
   276.087896781585        12.2979493156872     
   273.470033699482        16.9759968795945     
   269.130629762328        12.6310171534604     
   268.033534437174        16.8454106162800     
   266.118348148154        11.8918606822867     
   263.046803080843        16.3565671785111     
   261.267724147026        12.6590233766425     
   258.762118695992        17.0270212974325     
   256.626145496679        12.8244290435246     
   253.700052795758        17.1155935454876     
   251.614335170834        12.8743292960623     
   248.771872264017        17.1620946308407     
   246.570330800121        12.8459721871869     
   244.180132655237        17.2389351807343     
   241.807651048606        12.9788935530290     
   239.934077318426        17.8938988475111     
   237.361027358852        13.4437454424752     
   234.443236057061        17.1439679631357     
   231.797527763169        13.6609987384375     
   228.792538138626        16.8779630478254     
   226.909376576808        13.3264677384949     
   222.350821706766        17.9997396090559     
   222.363454393543        12.9130630244194     
   218.919839998270        17.5354055971462     
   217.097255302416        12.2337955397200     
   213.443861394374        16.2349788082353     
   211.207280256710        11.6517698052314     
   207.983627723193        16.1524443818800     
   206.569096446698        12.5571132380308     
   203.660382951090        16.9420992281011     
   201.708542325384        12.6987285910970     
   198.865845706404        17.0989694434665     
   196.774783732374        12.8321372741849     
   194.313435066515        17.3587468710136     
   191.913798454024        12.9113078508133     
   189.913095770143        17.5529759004723     
   187.014926187345        12.9658789218860     
   183.984878564645        17.2342510712896     
   182.782577149286        13.3133792989508     
   179.104000639885        17.2021001496354     
   176.722212948041        12.8038544627676     
   173.191392050181        16.7507436093683     
   171.302273843143        12.6892378843916     
   169.456826689078        17.6765618771244     
   166.996323660214        12.8661491267985     
   163.897471767954        17.3383374661218     
   161.215791196945        13.3381841011842     
   158.604707956456        17.7660618247273     
   155.696396828210        13.8948834910510     
   153.874903348786        17.3116185821231     
   152.071464622975        13.0668779938670     
   149.752964228044        16.8947452312490     
   146.616765668597        12.8129610513030     
   144.096182064788        16.8576177399957     
   141.420281988287        12.5563090261590     
   137.311015993069        11.4174184176844     
   132.702003342121        14.4462073989757     
   116.629810393330        13.4754820650906     
   122.264160842728        7.81340557329382     
   118.010251628261        7.73816948989181     
   114.069036751678        10.2897675534017     
   115.791573135985        12.8015040656448     
   115.738999920036        10.8504035329862     
   112.631036985327        7.94187559580445     
   108.341040034769        8.18031530441994     
   111.836842530753        10.0824013059152     
   100.202615248195        5.22891567515557     
   33.2000588909734        11.2873055333915     
   30.1607131269164        12.5602120331555     
   27.3540662445934        15.7017991424238     
   24.1549926087022        12.9490085843100     
   13.7941380664986        11.4724253413793     
   7.54371829490097        27.6980028918786     
   8.11014300127226        23.0393100850397     
   12.0056060638058        25.9926340785592     
   16.7777698315083        24.0630592863152     
   8.54863980223186        18.0768717782596     
   21.4037587524488        21.9948708236750     
   118.730854258314        14.7804037067610     
   120.486001876464        16.2038311684520     
   121.842014469027        18.6859579093287     
   123.128297868968        21.9539046812636     
   126.903009322223        23.7712798530202     
   389.669042420143        20.9239339295949     
   383.982955975819        21.8920175080878     
   390.448028509077        14.9375965174296     
   390.800832985879        8.45731163937926     
   384.298826961842        9.14186163563698     
   378.340236509644        21.5282420912876     
   379.179774394104        9.26957508622267     
   373.237443405759        21.4922630432423     
   374.891521737648        9.76797399928854     
   369.676397725122        21.3569560013810     
   368.373357745536        8.28934135404957     
   365.498604166496        21.0531896811669     
   363.817318614162        7.87086821992739     
   360.913416543607        21.3715646190990     
   358.824936037696        9.23931191588482     
   355.824501539908        21.9632711269078     
   353.730589370757        9.27327109162932     
   350.662873162150        22.9766363996260     
   349.598926483452        8.57405746557588     
   345.482816621891        21.8057272491554     
   344.567783214751        7.50712770212343     
   340.370402812374        21.7200886600099     
   339.344888490210        7.27393124167656     
   335.950371272042        21.0165384292161     
   334.425356491278        8.42953214745944     
   330.828301047666        22.4450891628337     
   330.467135729597        8.93930253736566     
   325.460984766140        22.7459175462767     
   325.811760279006        7.72096929014115     
   320.294301456439        22.0555758794488     
   320.712346311950        8.06762550560087     
   314.315695966736        22.3668089095673     
   314.749173784768        9.29806464431788     
   309.681145934112        22.0624026240924     
   309.505605054400        8.80020464706599     
   304.499712283696        22.2531984579979     
   304.754235188637        8.53889650007846     
   300.730575620654        21.8292457510653     
   298.660336907331        8.90643517943061     
   296.503294650829        21.3587056283836     
   294.764301151369        8.33402450875225     
   291.251063725759        21.3886700208675     
   290.963321063494        7.18847227006816     
   286.286795892549        21.5387967009633     
   284.651936613552        7.92019198284564     
   280.876999075720        21.2411750435232     
   278.097976764917        7.86468289823316     
   276.036062587720        20.7354267058348     
   272.506634043010        7.56975407791473     
   270.138421323541        21.3178321589635     
   267.984459991578        7.47974669259599     
   265.250816161589        20.4776019069153     
   263.879177504394        8.10636068855471     
   260.655253324622        21.1663606419109     
   259.626385309900        8.48849826246296     
   255.823580632074        21.4565039412626     
   254.215274295226        8.54936207474150     
   250.925695664707        21.3879941406253     
   249.163819670250        8.62669208603396     
   246.131536555307        21.4925473349553     
   244.438602063656        8.59763232914261     
   240.766706575189        21.5728802129710     
   239.708141691353        8.64845091320337     
   235.874580129271        21.8030147449868     
   234.587477515848        8.52914870964377     
   231.364394084978        21.9186995801479     
   229.294653720071        9.44914830086846     
   225.648801856469        22.7660878021578     
   223.773092633698        8.71654517332331     
   220.599520403363        21.6533265911965     
   219.247422105564        8.31859999333836     
   215.300963012962        21.6336857403670     
   215.442581017100        7.48580961456230     
   210.500523146130        21.1039357074201     
   209.332125796769        7.86079297808072     
   204.910350590587        20.7095593994093     
   204.940400798074        8.54079563498225     
   201.648341306422        21.1822469571755     
   200.348956622354        7.80517657921078     
   196.055075773924        21.5128221119231     
   194.932641074344        8.44487387506055     
   191.254209372796        21.4573827480085     
   190.601216995904        8.83707864321889     
   186.755387959558        21.5564320670372     
   184.707308957455        8.61651560309202     
   182.081730908481        21.9943431624345     
   179.752419616071        8.40182711836315     
   176.205331606376        21.3688493383933     
   174.681413650317        8.31079843207664     
   171.611783590995        21.8224823648224     
   169.800843769203        8.74719413109621     
   165.656610091414        21.2890442719748     
   165.412573808540        8.19872533204451     
   160.965183568220        21.7155346865269     
   159.584108953438        8.34505127359503     
   155.684145251881        22.6122270346294     
   154.282531063164        8.53847259461713     
   149.803362676353        21.5040186705363     
   149.491299661577        8.03589185438655     
   144.883483451114        21.6694201400178     
   144.598141216201        7.90525938112692     
   141.882410647708        22.1472140223745     
   138.480691665830        16.7149709011567     
   139.082537579744        8.83646066995143     
   134.726318365822        8.45471809203770     
   128.967408585516        8.64772236689525     
   117.443493256007        13.8334524999748     
   125.017741591175        7.84551597348568     
   119.849520691588        6.96695135568255     
   112.727002333421        11.4594456872082     
   113.922189212523        11.6199451095400     
   116.023785249022        12.1173378643952     
   115.633011630777        7.64131505037005     
   114.855033642475        11.8786855089703     
   110.719509497421        7.93575708958498     
   110.658975343294        11.2389417094671     
   111.538029138087        11.5473206980480     
   109.748639556311        10.0733345201468     
   107.774418422345        10.3120343344335     
   106.006392262065        8.17171843433023     
   106.348243483796        9.89903418492332     
   104.768504709260        9.75302751745475     
   103.549328332556        8.40530942395445     
   100.993571162441        8.19715054242151     
   98.3885921215166        8.03993252054142     
   95.8447625029723        7.73590865908644     
   93.9197182466867        7.31933932196350     
   44.0251533690926        8.43697122929474     
   41.6077370151971        11.5422185999451     
   39.4242014763373        8.46513874872327     
   36.3560882554652        13.1041503968057     
   33.9818172554739        8.88966164530358     
   33.5854239832771        15.6219742785257     
   29.4308219222915        9.16493239827142     
   30.5713282635000        18.0256398111671     
   24.2501491836022        9.53137534480599     
   26.3988788701035        20.7355033556246     
   21.1304637110955        8.53526249277160     
   16.6514254056273        7.82050831290970     
   8.89949617552675        12.5552871620195     
   11.3425474180565        8.04206517994640     
   7.19196849938191        8.15604566146459     
   3.51985916142182        29.3546266597563     
   6.69394592070095        31.9817401268345     
   3.87257360728627        24.9976034368458     
   11.1478123812636        30.7623503527478     
   4.11598307900866        20.3645892958270     
   15.9182767211696        29.2089063878069     
   21.2248984417771        26.9820752191957     
   118.253206871744        16.6805566342047     
   118.983083353227        18.5373430481918     
   119.539950074454        20.9199178442739     
   119.865830458052        23.3375516204260     
   122.098693385587        25.7735045604814     
   391.262053670765        25.7468360373776     
   396.494267020700        26.9119743754160     
   396.500964149444        23.3105988485212     
   386.408779753942        25.7905594782943     
   394.644215055161        18.0341818785552     
   396.172603853425        3.47272216145675     
   392.555253507287        3.35998265643930     
   395.689405792563        6.71131085398379     
   387.643697265661        3.87840715906912     
   394.610126725878        12.5452254058211     
   381.687089161022        27.0054665229847     
   382.139995380426        4.80822621456954     
   377.034050636864        26.0914246028698     
   376.101660295635        5.29284859986886     
   372.116893554583        25.2893619902126     
   370.869168018401        4.52851379757484     
   366.621560338441        25.6841912042631     
   366.792400169116        4.15315723582002     
   361.577655670116        25.8686116929244     
   361.987333954947        4.24255903744510     
   357.013102472937        26.4796977343758     
   357.009298012641        5.15172452907131     
   352.810236109014        27.0585309123009     
   354.242119567641        4.42864869087071     
   348.820164617407        26.4242232550913     
   348.343162064758        4.34663886415966     
   343.958180690588        25.9064244584240     
   341.559263843008        3.58945976821849     
   338.441217207778        25.4925185059494     
   337.259516970857        3.63583849974713     
   332.917417988565        26.2295438361212     
   333.625605189786        4.08693357165896     
   327.871076972882        26.1923721670822     
   327.841581712956        3.98153452290058     
   322.769064383782        26.1338087503676     
   321.141204750791        3.54345942688965     
   317.556845130218        26.1500078272033     
   317.215937749188        4.95945622498402     
   312.325768080678        26.5713772495992     
   311.474755691006        4.88675290207300     
   308.360215822004        25.7700060597347     
   306.117684562495        4.71214602009409     
   303.372252342225        26.2972723798404     
   302.495255341862        3.99292316250519     
   297.835334872967        26.4917915414122     
   297.621986253704        3.62914259985941     
   294.191999931058        25.2706049639293     
   292.485656824269        3.43169761720974     
   289.582832694341        25.5231083260108     
   287.144432749835        3.51346567261639     
   283.126834834266        26.9048004560831     
   281.839092373485        3.91868061198163     
   277.401911072635        25.4916802287097     
   275.961753679918        3.98111736456979     
   272.888815708575        26.1941801225777     
   271.679901363745        3.03607627825466     
   267.280401269106        25.2540966117423     
   266.749291984728        3.26204589967213     
   262.324560351328        25.0289573070077     
   261.796092102307        3.99808646799942     
   258.048463575032        25.5954987628803     
   256.576138058301        4.32429084401381     
   252.698261881584        25.8741923878415     
   252.610016082129        4.66328651028934     
   248.066051491491        25.5229711889458     
   247.343773343345        4.50378189170551     
   242.106583769716        26.4172880565798     
   242.271008525460        4.36401498511033     
   237.073378296100        26.1656666844776     
   238.026194528282        4.77193722375737     
   232.816116237634        26.5640392566202     
   232.456357640223        5.02307984299655     
   228.219542820868        26.2778230255155     
   226.904752776739        3.37080670925518     
   223.291914641662        26.4241946776250     
   221.511313325643        4.32520907010664     
   218.288740706999        26.0305338750537     
   216.871924945924        3.05765910697654     
   213.933984984825        25.3328243650413     
   211.958876540144        4.09522934527411     
   207.722388964378        25.9541300899162     
   208.022873615078        3.68147235276228     
   202.360576731477        25.8621413185898     
   202.535900965161        3.87039908096798     
   196.882455207167        25.9494047404028     
   197.174258547263        3.76515674199652     
   191.527323752556        25.0194580552102     
   192.849357378454        4.52528747138976     
   188.942709391218        25.6587110417950     
   187.658373543611        4.19933163302438     
   183.564377698851        25.5883532498108     
   181.837186087401        4.35701374984292     
   178.674449515346        25.7283149295582     
   177.028616630668        4.69626336233174     
   173.979282475886        25.8702072533478     
   172.865703917814        4.06144400327939     
   168.344524307567        25.7975517329064     
   167.228454928744        4.34993003209247     
   163.104540544085        25.8968762205269     
   161.108054610409        4.60247024841905     
   158.378184740557        26.3409810976407     
   156.134873520783        3.53985651246039     
   152.715099128972        26.2120453108550     
   152.117239656111        3.77286934324387     
   148.010951729311        25.8780703081253     
   147.232533623101        3.30860452692954     
   143.594755661058        25.7649509896240     
   142.303846751778        3.66457533898177     
   138.912813119325        25.9327222361953     
   136.889262264044        4.38083717296871     
   133.414547284632        22.2943769342949     
   132.154326200337        4.46688993247301     
   117.792261455842        15.3860433860218     
   116.520991383317        13.9706734436590     
   127.868958384878        4.49800525355658     
   123.709494038027        4.23547277856815     
   113.210252313953        12.7615603959829     
   118.712807286180        4.15412021934802     
   114.311502542411        12.8545543940109     
   115.264912687631        13.0087811192008     
   113.397426876417        4.57354237672240     
   111.816312690974        12.5606496258460     
   110.724327111593        12.4420236694928     
   109.540099120296        12.1064308443845     
   108.100341448613        11.8366155401427     
   108.815964396698        4.31823605599909     
   106.499337707674        11.6797508707440     
   104.894938776355        11.4361864722028     
   103.246096597222        11.0061808600182     
   103.671388901212        4.27850571246757     
   101.337734187647        10.5505725329982     
   99.1096214628134        10.2723553990595     
   96.8156479097554        9.99240849453576     
   97.6317319987989        3.73800102114524     
   94.4321647157367        9.79653912584011     
   91.8868024151827        8.87913035361101     
   91.3912854759131        4.87485161515385     
   89.3902088437034        7.86350043403126     
   86.1432947614984        7.71943088726534     
   87.3062970384543        3.78871217857322     
   84.0446944623780        6.33762248444659     
   83.1442674563211        2.84727282470605     
   81.2992787263791        4.55301394700148     
   77.2234010261069        4.61621059792626     
   72.5393037420091        4.51912504749533     
   68.6475474857960        3.84995030494020     
   63.0025449003915        4.47176299044359     
   60.2340589600066        8.09643118181754     
   57.0851100782466        3.52493783102270     
   55.6796457022093        8.18222298237856     
   52.2672655381410        4.41634990770592     
   48.7491978767930        10.0326875877122     
   46.7931867451511        4.30712648039165     
   44.8797358180307        13.5323605759518     
   42.1743865768649        4.32750524013343     
   41.1084302792355        16.1187572469226     
   37.1225563820616        4.36305474125723     
   37.6508465094509        18.1797544877355     
   31.7994043795397        4.58251772628770     
   33.9470883555800        21.0037355693807     
   26.4956345551154        4.79627091880389     
   30.7368401693478        23.5361136193854     
   22.9761263861181        4.72850616509890     
   26.7432539971649        25.4837272161074     
   18.4639476468992        3.53487660952396     
   4.23979953747819        15.5344911862960     
   13.2918485700846        3.94458130251666     
   3.95923487968289        10.6679126831050     
   8.37513754779003        4.23383728323529     
   3.49787934450117        5.22543080111193     
   115.799507033959        13.3742216692860     
  0.000000000000000E+000  0.000000000000000E+000
  0.000000000000000E+000   36.0000000000000     
   400.000000000000        30.0000000000000     
   400.000000000000       0.000000000000000E+000
  0.000000000000000E+000   4.50000000000000     
  0.000000000000000E+000   9.00000000000000     
  0.000000000000000E+000   13.5000000000000     
  0.000000000000000E+000   18.0000000000000     
  0.000000000000000E+000   22.5000000000000     
  0.000000000000000E+000   27.0000000000000     