 TITLE = "Edge Error"
 VARIABLES = "X", "Y","Estimate1" 
 ZONE T = "Domain", I=       11260  DATAPACKING=POINT, ZONETYPE=ORDERED
   115.652200000000        14.6581895000000       2.273554386815196E-004
   115.660109500000        14.7896123000000       1.336753281611486E-005
   115.659382000000        14.5267667000000       3.940119212536161E-005
   115.667291500000        14.6581895000000       1.927847158402626E-004
   115.652200000000        14.3953439000000       4.124530980573298E-004
   115.658654500000        14.2639211000000       1.098450660132046E-004
   115.665836500000        14.3953439000000       2.388069800090373E-004
   115.652200000000        14.1324983500000       2.051682205282662E-003
   115.657927500000        14.0010756000000       1.266437915071306E-003
   115.664382000000        14.1324983500000       3.253008543889565E-003
   115.652200000000        13.8696528000000       8.080956269866491E-003
   115.657200000000        13.7382300000000       2.957688603051212E-003
   115.662927500000        13.8696528000000       1.557435450560759E-002
   115.652200000000        15.7813628500000       2.115790539425543E-004
   115.663768500000        16.1119466000000       4.136435845846022E-007
   115.661939000000        15.4507793000000       2.703067996939371E-006
   115.673507500000        15.7813630500000       7.440497846434785E-004
   115.652200000000        15.1201957000000       1.141755793607220E-004
   115.669848500000        15.1201959000000       4.964586233400834E-004
   115.652200000000        17.3601409000000       3.416921036020844E-004
   115.668374000000        17.7762056000000       1.604161863847528E-006
   115.666071500000        16.9440761500000       3.648352731593466E-007
   115.682245500000        17.3601408500000       1.063031744681404E-003
   115.652200000000        16.5280114000000       3.416921857268375E-004
   115.677640000000        16.5280113500000       1.062885725364829E-003
   115.652200000000        19.3471326500000       8.862490049025744E-005
   115.674170000000        19.8707749000000       4.850333225823854E-006
   115.671272000000        18.8234903500000       4.193557981268780E-007
   115.693242000000        19.3471326000000       8.515670189371752E-004
   115.652200000000        18.2998480000000       3.445590541283968E-004
   115.687446000000        18.2998479500000       1.023277336486394E-003
   115.652200000000        21.8479135000000       6.809407909567049E-004
   115.681465000000        22.5069598000000       1.784373723458451E-005
   115.677817500000        21.1888673000000       1.294967295394907E-005
   115.707082500000        21.8479136000000       6.295926879905716E-004
   115.652200000000        20.5298210500000       3.222907812291227E-004
   115.699787500000        20.5298211500000       1.072804640361875E-003
   115.652200000000        24.9952586000000       6.122966323583469E-004
   115.690646000000        25.8246914000000       1.072707963673297E-005
   115.686055500000        24.1658257000000       1.824517736092769E-005
   115.724501500000        24.9952585000000       7.656509877043942E-004
   115.652200000000        23.3363928000000       8.569879886520757E-004
   115.715320500000        23.3363927000000       4.469023182065058E-004
   115.652200000000        28.9561728500000       8.433193769119326E-004
   115.702200000000        30.0000000000000       2.292003503094116E-005
   115.696423000000        27.9123457000000       1.635643029890046E-006
   115.746423000000        28.9561728500000       1.625311238941678E-003
   115.652200000000        26.8685185500000       8.433193769119326E-004
   115.734869000000        26.8685185500000       1.426039521213150E-003
   115.676877500000        14.7895632500000       1.487132969898887E-005
   115.674608000000        14.5267222000000       4.943103042200992E-005
   115.684194000000        14.6580959500000       4.854077251179577E-004
   115.672338500000        14.2638811000000       1.275003581920608E-004
   115.681110000000        14.3952594000000       1.277153910487649E-003
   115.670069500000        14.0010401000000       1.417508847590175E-003
   115.678026000000        14.1324228500000       2.600575244395572E-003
   115.667800000000        13.7381990000000       3.309039067305274E-003
   115.674942000000        13.8695863000000       5.105138216184638E-003
   115.688294000000        16.1118749000000       2.538656487751191E-007
   115.682585500000        15.4507191000000       3.123432594024524E-006
   115.697372000000        15.7812309500000       1.344795333766051E-003
   115.689614500000        15.1200864500000       1.248241407690517E-003
   115.702662500000        17.7761053500000       1.809227156066344E-006
   115.695478500000        16.9439901500000       1.793042600879403E-007
   115.715895500000        17.3599546500000       1.514263984732383E-003
   115.706132500000        16.5278537000000       1.691233811438922E-003
   115.720746500000        19.8706387000000       5.288660082136017E-006
   115.711704500000        18.8233720500000       5.590917603066379E-007
   115.739209000000        19.3468781500000       2.098002488740240E-003
   115.726921000000        18.2996294500000       1.152065110213479E-003
   115.743506500000        22.5067784000000       2.186169485427540E-005
   115.732126500000        21.1887086000000       1.521401420123299E-005
   115.768550500000        21.8475734000000       3.202380428048288E-003
   115.753085500000        20.5295261500000       3.201374427482374E-003
   115.772151000000        25.8244530500000       1.308961687149565E-005
   115.757828500000        24.1656157500000       2.259222989071462E-005
   115.805478000000        24.9948103000000       4.317844302346790E-003
   115.786014500000        23.3360014500000       3.041544283578450E-003
   115.808199000000        29.9996900500000       2.734013596992916E-004
   115.790175000000        27.9120715500000       1.058320500555560E-006
   115.851951000000        28.9555887500000       8.805185461148278E-003
   115.827457000000        26.8680060500000       8.749332396361525E-003
   115.695656500000        14.7893978000000       1.552801547496322E-005
   115.691660500000        14.5265720000000       6.261114542029588E-005
   115.703123000000        14.6578738500000       7.921995707289711E-004
   115.687664000000        14.2637461000000       1.416597924192141E-004
   115.698214500000        14.3950587000000       2.183268249162579E-003
   115.683668000000        14.0009203000000       2.967594694525628E-004
   115.693306000000        14.1322435500000       3.045957717453323E-003
   115.679671500000        13.7380944000000       5.743493425809919E-004
   115.688397500000        13.8694284000000       3.045969303431939E-003
   115.715761500000        16.1116329500000       3.349021714259163E-007
   115.705709000000        15.4505154000000       3.250482703542313E-006
   115.724098500000        15.7809174000000       2.013815592482124E-003
   115.711751000000        15.1198267500000       2.020683546433096E-003
   115.741064500000        17.7757670500000       1.985790794451973E-006
   115.728413000000        16.9437000500000       3.107813900202354E-007
   115.753582000000        17.3595124500000       1.779790012292599E-003
   115.738042000000        16.5274793000000       2.499940523365662E-003
   115.772910500000        19.8701791500000       5.568794238943602E-006
   115.756987500000        18.8229731000000       3.885008119094325E-007
   115.790689000000        19.3462741000000       2.599186542602249E-003
   115.771131000000        18.2991107000000       8.235656947391430E-004
   115.812990500000        22.5061663000000       2.512787777470452E-005
   115.792950500000        21.1881727500000       1.733006476103226E-005
   115.837390500000        21.8467656500000       4.763490131140385E-003
   115.812775500000        20.5288257500000       4.426960972569698E-003
   115.863433000000        25.8236489000000       1.303736544418828E-005
   115.838211500000        24.1649076500000       2.575064795983886E-005
   115.896166500000        24.9937462500000       8.247321912468587E-003
   115.865187500000        23.3350725000000       6.671511676582850E-003
   115.926914000000        29.9986442500000       5.092549354024542E-004
   115.895173500000        27.9111465500000       1.359997972787198E-006
   115.970136500000        28.9542020500000       1.489732399920300E-002
   115.931149500000        26.8667894000000       1.474612012858475E-002
   115.716687500000        14.7890739000000       1.511805318619570E-005
   115.710757500000        14.5262778500000       8.032726413400943E-005
   115.724322000000        14.6574779000000       6.548931864581961E-004
   115.704827000000        14.2634817500000       1.509609868582425E-004
   115.717370000000        14.3947009000000       1.846833079514659E-003
   115.698897000000        14.0006857500000       3.580660777597650E-004
   115.710418000000        14.1319239500000       2.832038243780886E-003
   115.692966500000        13.7378896500000       4.151313740170886E-004
   115.703466000000        13.8691470000000       4.358287975727971E-003
   115.746522000000        16.1111592000000       1.618064950192798E-006
   115.731605000000        15.4501165500000       3.018700484352936E-006
   115.754028500000        15.7803583500000       2.667169258669347E-003
   115.736541500000        15.1193637000000       2.664458993496973E-003
   115.784071000000        17.7751047000000       2.119664245616966E-006
   115.765296500000        16.9431319500000       1.394690103629111E-006
   115.795785500000        17.3587242000000       2.314849392642781E-003
   115.773776500000        16.5268118500000       3.353318254277781E-003
   115.831329000000        19.8692794000000       6.158223772839866E-006
   115.807700000000        18.8221920500000       1.609780429849924E-007
   115.848340000000        19.3451973500000       2.240189403883948E-003
   115.820640000000        18.2981860500000       9.471930128141845E-004
   115.890806000000        22.5049678500000       2.899104356039500E-005
   115.861067500000        21.1871236500000       2.041197952357001E-005
   115.914483000000        21.8453258500000       5.610047035482276E-003
   115.879621000000        20.5275773000000       4.131886259693624E-003
   115.965660500000        25.8220744500000       1.085143063502980E-005
   115.928233500000        24.1635211500000       2.858906435620118E-005
   115.997727500000        24.9918493500000       1.050992895184511E-002
   115.953852000000        23.3334165000000       8.801617975379608E-003
   116.059864000000        29.9965966000000       5.703126130762943E-004
   116.012762500000        27.9093355000000       4.914220133500347E-006
   116.102490000000        28.9517300500000       1.616341054628853E-002
   116.047273500000        26.8646205500000       1.595629482953361E-002
   115.740239000000        14.7885372500000       1.311320554334583E-005
   115.732143000000        14.5257905500000       1.045568635118300E-004
   115.748060000000        14.6568499000000       9.787270078916242E-004
   115.724047000000        14.2630438000000       1.684863563114633E-004
   115.738820000000        14.3941334500000       1.061000505455038E-003
   115.715951000000        14.0002971500000       3.993379156614386E-004
   115.729580000000        14.1314170000000       3.091920389786053E-003
   115.707854500000        13.7375504000000       4.629047016956454E-004
   115.720339500000        13.8687005500000       3.356830388488243E-003
   115.780969000000        16.1103742500000       3.896880137059140E-006
   115.760604000000        15.4494557500000       2.098943153911523E-006
   115.787544500000        15.7794716500000       3.363315042472862E-003
   115.764301500000        15.1186293000000       3.369953719340877E-003
   115.832231500000        17.7740073000000       1.072636760228811E-006
   115.806600500000        16.9421907500000       3.956712408128152E-006
   115.843046500000        17.3574738500000       3.162294320158074E-003
   115.813793000000        16.5257531500000       4.214094711288151E-003
   115.896748000000        19.8677887500000       7.664561132850099E-006
   115.864490000000        18.8208980500000       1.737135228713431E-007
   115.912898000000        19.3434894500000       1.397366800007304E-003
   115.876081500000        18.2967193000000       1.680899303368301E-003
   115.977947000000        22.5029822500000       3.485790630525583E-005
   115.937347500000        21.1853855000000       2.495360297747261E-005
   116.000811500000        21.8430419000000       5.430814658769150E-003
   115.954474500000        20.5255969500000       3.323379826834109E-003
   116.080139500000        25.8194659000000       9.483896961298676E-006
   116.029043500000        24.1612240500000       3.360756500036627E-005
   116.111455500000        24.9888406000000       1.047248328743690E-002
   116.053138500000        23.3307898000000       9.030167492227839E-003
   116.208746500000        29.9932041000000       6.232322933694617E-004
   116.144443000000        27.9063350000000       8.942906010877084E-006
   116.250699500000        28.9478090500000       1.308547670530659E-002
   116.177309000000        26.8611803500000       1.316529317854966E-002
   115.766610500000        14.7877181500000       9.162780845259028E-006
   115.756089500000        14.5250468000000       1.375507944345424E-004
   115.774640000000        14.6559150500000       1.256875865876061E-003
   115.745568500000        14.2623753500000       2.148589041344107E-004
   115.762838000000        14.3932887000000       2.015732133876203E-004
   115.735047000000        13.9997040000000       2.482433608074804E-004
   115.751035500000        14.1306623500000       3.528212227099166E-003
   115.724525500000        13.7370326000000       3.239429767039024E-004
   115.739233000000        13.8680360500000       3.961207194089341E-003
   115.819541500000        16.1091762000000       5.921442577396553E-006
   115.793076000000        15.4484472000000       7.403396472586634E-007
   115.825073000000        15.7781517500000       3.707156433210024E-003
   115.795385000000        15.1175360500000       3.710324170922435E-003
   115.886159500000        17.7723323000000       6.340343942097273E-007
   115.852850500000        16.9407542500000       5.182211028874458E-006
   115.895963500000        17.3556127000000       3.278258685190574E-003
   115.858599000000        16.5241773000000       4.166687591015000E-003
   115.970001000000        19.8655135000000       1.138847307998634E-005
   115.928080500000        18.8189229500000       1.542126235868041E-007
   115.985183500000        19.3409470000000       6.824000005518918E-004
   115.938158500000        18.2945359500000       1.960860259706949E-003
   116.075523500000        22.4999515000000       4.362954821893821E-005
   116.022762000000        21.1827325000000       3.255021812640494E-005
   116.097474000000        21.8396421000000       4.213337434341277E-003
   116.038288500000        20.5226490500000       2.139252977599931E-003
   116.208327000000        25.8154844000000       8.454133164555643E-006
   116.141925000000        24.1577179500000       4.142079556014225E-005
   116.238796500000        24.9843617500000       9.174814578147353E-003
   116.164310000000        23.3268796500000       7.906857330895817E-003
   116.375457500000        29.9880260500000       4.928273603959807E-004
   116.291892000000        27.9017552000000       7.677663035857020E-006
   116.416650000000        28.9419722000000       7.769613310886417E-003
   116.322910000000        26.8560592500000       1.152251205043485E-002
   115.796137000000        14.7865273000000       2.712315589737450E-006
   115.782901000000        14.5239654500000       1.815005927239128E-004
   115.804398000000        14.6545777000000       1.486296556150078E-003
   115.769664500000        14.2614035500000       2.845949021565874E-004
   115.789727500000        14.3920803000000       5.819926493830726E-004
   115.756427500000        13.9988417000000       4.553686216372340E-004
   115.775056500000        14.1295829000000       4.200015476367567E-003
   115.743191000000        13.7362798000000       5.098561969944390E-004
   115.760385500000        13.8670854500000       4.627204783098866E-003
   115.862728500000        16.1074344500000       1.036749509421292E-005
   115.829433000000        15.4469809000000       4.174136294180422E-006
   115.867088500000        15.7762636000000       4.907749280628456E-003
   115.830185000000        15.1159721500000       4.907750247413995E-003
   115.946538500000        17.7698971500000       3.295015866338964E-006
   115.904633000000        16.9386658000000       6.045148389941136E-006
   115.955208000000        17.3529502500000       2.914553190285192E-003
   115.908762500000        16.5219229500000       4.812772806592786E-003
   116.052017500000        19.8622056500000       1.611098584711164E-005
   115.999278000000        18.8160514500000       8.533467337069080E-007
   116.066112000000        19.3373101000000       8.519701841432294E-004
   116.007658000000        18.2914126500000       1.439184300070917E-003
   116.184772500000        22.4955453500000       6.045976381548776E-005
   116.118395000000        21.1788755500000       4.424115239766081E-005
   116.205693500000        21.8347788000000       1.862926119264081E-003
   116.132124000000        20.5184321500000       1.132616149738362E-003
   116.351849000000        25.8096959500000       1.533445867457635E-005
   116.268310500000        24.1526206500000       5.875537111497197E-005
   116.381363000000        24.9779548500000       5.469067562746884E-003
   116.288773000000        23.3212863500000       4.158727982446756E-003
   116.562111500000        29.9804980000000       2.767456505452831E-004
   116.456980500000        27.8950969500000       1.184739765171327E-005
   116.602442000000        28.9336227500000       6.640914401719451E-003
   116.485919500000        26.8487336500000       6.847248683227458E-003
   115.829191000000        14.7848507000000       5.647210273812002E-006
   115.812915500000        14.5224430000000       2.346111378416324E-004
   115.837708500000        14.6527160000000       1.370515296215861E-003
   115.796639000000        14.2600353500000       4.644445968233961E-004
   115.819827000000        14.3903980500000       1.502587749891236E-003
   115.780362500000        13.9976276500000       1.190708149450061E-003
   115.801945000000        14.1280801000000       5.848200332824039E-003
   115.764086500000        13.7352199000000       1.031839463925304E-003
   115.784063500000        13.8657621000000       6.501912396176022E-003
   115.911074500000        16.1049822000000       1.908520004132504E-005
   115.870133000000        15.4449164500000       1.063611669979311E-005
   115.914119000000        15.7736350500000       6.241178609798574E-003
   115.869139000000        15.1137950000000       6.241177665846292E-003
   116.014130500000        17.7664686500000       1.929523222963064E-005
   115.962602500000        16.9357254500000       1.997777234492067E-005
   116.021525000000        17.3492438500000       5.840387114048860E-003
   115.964914500000        16.5187847000000       7.715213587148107E-003
   116.143832500000        19.8575485500000       3.812321633380265E-006
   116.078981500000        18.8120086500000       1.910890586949097E-005
   116.156702000000        19.3322471000000       4.710774448343018E-003
   116.085454000000        18.2870646500000       5.817751396080926E-003
   116.307073000000        22.4893419000000       7.883768226342968E-005
   116.225453000000        21.1734452500000       4.315877584438518E-005
   116.326832500000        21.8280083500000       3.802100120480162E-003
   116.237161500000        20.5125616500000       4.655693205405164E-003
   116.512517500000        25.8015464000000       2.429961450988721E-005
   116.409795000000        24.1454441500000       8.599121361033818E-005
   116.540949500000        24.9690357000000       1.693983369870693E-002
   116.428095000000        23.3134997000000       6.219865940874304E-003
   116.771065000000        29.9698992500000       2.926201747967762E-003
   116.641791500000        27.8857228500000       3.208449034557344E-004
   116.810414500000        28.9219993500000       4.223900262000142E-002
   116.668389500000        26.8385356000000       4.073765924377390E-002
   115.866187000000        14.7825431500000       6.342182537948764E-006
   115.846509000000        14.5203476500000       3.240492501089634E-004
   115.874987500000        14.6501748000000       2.448626572714093E-003
   115.826830500000        14.2581522000000       5.364076125607095E-004
   115.853512500000        14.3881018000000       1.994205000041410E-003
   115.807152000000        13.9959566500000       1.310723458431861E-003
   115.832037500000        14.1260287500000       7.426121483209159E-003
   115.787474000000        13.7337611500000       1.148212862764562E-003
   115.810562500000        13.8639557000000       7.839734373328586E-003
   115.965186000000        16.1016070500000       4.677397029582543E-005
   115.915686500000        15.4420750500000       3.413102019301736E-005
   115.966753500000        15.7700470500000       1.058833059828109E-002
   115.912734500000        15.1108232000000       9.592356182517041E-003
   116.089783500000        17.7617499000000       4.518679185468414E-005
   116.027485000000        16.9316785000000       4.838459393841362E-005
   116.095743500000        17.3441845500000       1.178946607811203E-002
   116.027756500000        16.5145008500000       1.332622391234246E-002
   116.246597000000        19.8511387500000       1.593402831836804E-005
   116.168190500000        18.8064443500000       4.569768880769939E-005
   116.258085500000        19.3253360000000       8.209164963816469E-003
   116.172520000000        18.2811296000000       1.139844270604950E-002
   116.443959500000        22.4808037500000       1.013891029520896E-004
   116.345278500000        21.1659712500000       3.619518231410219E-005
   116.462405500000        21.8187666500000       5.598681785487667E-003
   116.354714000000        20.5045483500000       7.423354700010696E-003
   116.692347500000        25.7903297500000       5.093532483634861E-005
   116.568153000000        24.1355667500000       1.298346127351343E-004
   116.719551000000        24.9568608000000       1.898927513488142E-003
   116.584017500000        23.3028708000000       4.058127389813199E-003
   117.004938500000        29.9553117000000       3.272705894826454E-003
   116.848643000000        27.8728207500000       3.071170268468830E-004
   117.043167000000        28.9061331000000       4.227780681960987E-003
   116.872601000000        26.8246149000000       4.042788292556562E-003
   115.907585500000        14.7794200000000       5.975845384326950E-004
   115.884100000000        14.5175117000000       8.515993103563580E-004
   115.916698000000        14.6467569000000       1.032640236308283E-003
   115.860614500000        14.2556034500000       1.722533260286970E-003
   115.891202000000        14.3850133500000       5.686874715411838E-003
   115.837129500000        13.9936951000000       1.817277835519999E-004
   115.865706500000        14.1232698000000       1.780941388055935E-002
   115.813644000000        13.7317868500000       9.360487928921560E-004
   115.840211000000        13.8615262500000       1.681161290468583E-002
   116.025736500000        16.0970390000000       6.646116375889925E-005
   115.966661000000        15.4382294500000       1.647591891553888E-005
   116.025644000000        15.7652214000000       1.565161001634196E-003
   115.961512000000        15.1068262500000       2.209358397947596E-003
   116.174439000000        17.7553633500000       4.316858459938422E-005
   116.100088000000        16.9262011500000       6.404487026202352E-005
   116.178783500000        17.3373799500000       4.367148918974387E-003
   116.098068000000        16.5087393000000       4.360442589374232E-003
   116.361589500000        19.8424635000000       5.595443516156697E-005
   116.268014500000        18.7989134500000       5.218508271103700E-005
   116.371518500000        19.3160409500000       3.682019076759911E-003
   116.269933500000        18.2731472000000       4.832064078444224E-003
   116.597134000000        22.4692480000000       5.538306836056115E-004
   116.479362000000        21.1558557500000       3.149049137797842E-004
   116.614090500000        21.8063371000000       2.546684889365643E-003
   116.486237500000        20.4937709000000       3.854994730304913E-003
   116.893575500000        25.7751487000000       2.990442197720231E-004
   116.745354500000        24.1221983500000       7.098537651380545E-004
   116.919379000000        24.9404862500000       1.807469937505229E-002
   116.758471000000        23.2885755500000       5.810647781767691E-003
   117.266641000000        29.9355683500000       2.763717217796658E-003
   117.080108000000        27.8553585500000       4.306702152027177E-004
   117.303582000000        28.8847938000000       3.679765243283153E-002
   117.101082500000        26.8058923500000       3.537934701337202E-002
   1.73755514000000        2.61857164500000       8.670094827134663E-003
  0.000000000000000E+000   2.25000000000000       1.684111794549984E-003
   1.73755514000000        4.86857164500000       2.344068034233399E-003
  0.000000000000000E+000   6.75000000000000       2.099567405674266E-003
   1.73755514000000        7.11857164500000       3.981958758667866E-003
   1.95964252500000        9.84397190000000       4.109714700903998E-003
  0.000000000000000E+000   11.2500000000000       2.099567405674266E-003
   1.95964252500000        12.0939719000000       1.500412476811452E-004
   2.09770050500000        14.5279899000000       5.968498215415897E-003
  0.000000000000000E+000   15.7500000000000       1.609980622771730E-003
   2.09770050500000        16.7779899000000       2.824122686926410E-003
  0.000000000000000E+000   20.2500000000000       1.318283858746616E-003
   2.03948160000000        21.4410353000000       2.290449524697672E-003
   2.03948160000000        19.1910353000000       4.063058904264245E-003
   1.92412423000000        26.0044249000000       6.847852662169180E-004
   1.92412423000000        23.7544249000000       1.515103980732099E-003
  0.000000000000000E+000   24.7500000000000       1.217272154871909E-003
   1.75386011500000        30.4300508000000       2.010206615544533E-003
   1.75386011500000        28.1800508000000       4.216956339427457E-003
  0.000000000000000E+000   29.2500000000000       5.129953752611233E-003
   1.51726181500000        32.2182488000000       3.934178224970566E-003
  0.000000000000000E+000   33.7500000000000       5.129953752611233E-003
   1.51726181500000        34.4682488000000       5.624593341294472E-003
   4.01332338500000        34.3836928000000       6.458329770160805E-003
   2.49606157000000        35.9154440000000       6.974915299570468E-004
   5.83609766500000        33.9096622000000       7.139300268597906E-003
   7.47459345500000        35.5591607500000       1.193578775148097E-003
   8.31856798000000        33.6379349500000       7.491158158358550E-003
   10.5325982850000        33.0377565500000       1.939565505171765E-003
   12.4076317850000        34.8071583500000       3.409442529902556E-003
   12.9831663000000        32.5574814000000       6.802174127862469E-003
   15.3249504000000        31.8282060500000       6.009628651227196E-004
   17.2573503500000        33.6340283500000       3.954328292913057E-003
   17.7241009500000        31.1353512000000       7.981803898606898E-003
   20.1752368500000        30.2547504500000       6.659451736972386E-003
   21.9890756000000        32.0491893500000       5.249043480099008E-003
   22.5078115500000        29.3627663000000       1.455793546769400E-002
   25.3238037500000        28.2420973500000       6.978733145052408E-003
   26.5810178500000        30.0929348500000       5.644209602440263E-003
   27.5831713000000        27.1778270000000       2.004625181439548E-002
   29.4670974000000        27.4759932000000       2.732993159069710E-004
   31.0296069000000        27.8263219000000       6.063303822849937E-003
   31.6563189000000        26.2736506000000       6.654801468617757E-003
   30.3104057000000        24.7367835500000       2.384368433734763E-003
   30.9521009500000        25.4641679000000       2.523140160842746E-003
   31.1686972500000        24.2776295500000       5.512466195388132E-003
   32.5146104500000        25.8144966000000       3.017300479706534E-003
   33.4563793500000        25.2253561000000       1.394905342210113E-003
   35.3495147500000        25.3204236500000       9.091582399845947E-003
   35.5870657000000        23.9218004500000       9.044173951864080E-003
   33.7460516500000        22.4539995000000       5.252131432437802E-003
   34.6381801500000        23.1981143000000       3.098600133167265E-003
   34.6903015000000        21.8253809000000       9.998544756403407E-003
   36.5313155500000        23.2931818500000       5.062929912061284E-003
   37.5379736500000        22.6127065500000       2.905742560764691E-003
   39.5708326000000        22.6497992500000       1.494031294836788E-002
   39.6286051500000        21.2456378000000       1.625596066157010E-002
   37.6107692500000        19.7329306500000       9.879783998447541E-003
   38.5925919500000        20.5405415500000       6.211083267312409E-003
   38.6076150000000        19.0649271000000       1.707069921482106E-002
   40.6254509000000        20.5776342500000       9.390405133346573E-003
   41.6291936500000        19.9001082000000       6.542400359671055E-003
   43.7365133000000        19.8920421000000       2.724354469113558E-002