TITLE = "Visualization of the solution"
VARIABLES = "x","y","Density","Momentum_x","Momentum_y","Energy","Pressure","Temperature","Pressure_Coefficient","Mach"
ZONE NODES= 7409, ELEMENTS= 14294, DATAPACKING=POINT, ZONETYPE=FEQUADRILATERAL
1.156522e+02	1.373823e+01	6.553689e-01	4.959976e+02	3.109647e+01	1.884801e+05	2.053889e+01	1.055200e-01	-1.428520e+18	1.144817e+02	
1.156522e+02	1.478961e+01	1.599314e-01	-6.682459e-02	-1.734625e+01	3.574032e+04	1.391985e+04	2.930517e+02	-1.393867e+18	3.107138e-01	
1.156522e+02	1.611195e+01	1.569484e-01	-1.044723e-02	-1.080118e+01	3.164289e+04	1.250849e+04	2.683437e+02	-1.397386e+18	2.060282e-01	
1.156522e+02	1.777621e+01	1.561722e-01	1.639409e-02	-2.057994e+01	3.014429e+04	1.151532e+04	2.482652e+02	-1.399862e+18	4.101478e-01	
1.156522e+02	1.987077e+01	1.290697e-01	2.270713e-02	-3.504523e+01	2.646328e+04	8.682201e+03	2.264901e+02	-1.406925e+18	8.847853e-01	
1.156522e+02	2.250696e+01	1.041524e-01	-9.737314e-05	-3.596046e+01	2.336979e+04	6.864718e+03	2.219203e+02	-1.411457e+18	1.136620e+00	
1.156522e+02	2.582469e+01	1.324981e-01	6.107189e-03	-3.996056e+01	2.981167e+04	9.514301e+03	2.417747e+02	-1.404851e+18	9.512052e-01	
1.156522e+02	3.000000e+01	2.045410e-01	-5.362352e-02	-1.043133e+00	4.379908e+04	1.751857e+04	2.883778e+02	-1.384895e+18	1.474719e-02	
1.156622e+02	1.373823e+01	6.540414e-01	4.916897e+02	3.254713e+01	1.856291e+05	3.787747e-02	1.949931e-04	-1.428571e+18	2.645961e+03	
1.156680e+02	1.478961e+01	1.614966e-01	-6.143632e-01	-1.719128e+01	3.576437e+04	1.393928e+04	2.906166e+02	-1.393819e+18	3.064216e-01	
1.156753e+02	1.611195e+01	1.585653e-01	-3.103208e-02	-1.094858e+01	3.165978e+04	1.251271e+04	2.656972e+02	-1.397375e+18	2.077379e-01	
1.156845e+02	1.777621e+01	1.564087e-01	2.945562e-01	-2.169593e+01	3.027468e+04	1.150786e+04	2.477292e+02	-1.399881e+18	4.322416e-01	
1.156961e+02	1.987077e+01	1.279616e-01	1.685017e-01	-3.510516e+01	2.650122e+04	8.674285e+03	2.282430e+02	-1.406945e+18	8.905437e-01	
1.157107e+02	2.250696e+01	1.037271e-01	1.156466e-01	-3.582206e+01	2.335653e+04	6.868365e+03	2.229485e+02	-1.411448e+18	1.134269e+00	
1.157291e+02	2.582469e+01	1.321056e-01	-4.732714e-02	-3.982734e+01	2.977934e+04	9.510293e+03	2.423909e+02	-1.404861e+18	9.496423e-01	
1.157522e+02	3.000000e+01	2.045275e-01	-2.223155e+00	-9.865708e-01	4.382437e+04	1.752396e+04	2.884856e+02	-1.384882e+18	3.433590e-02	
1.156734e+02	1.373817e+01	7.216935e-01	5.345010e+02	4.412571e+01	2.059643e+05	2.673658e+03	1.247374e+01	-1.421906e+18	1.031882e+01	
1.156857e+02	1.478951e+01	1.639292e-01	-1.111724e+00	-1.712475e+01	3.573705e+04	1.393553e+04	2.862270e+02	-1.393828e+18	3.034475e-01	
1.157013e+02	1.611180e+01	1.602279e-01	-2.813573e-02	-1.116085e+01	3.168873e+04	1.252001e+04	2.630935e+02	-1.397357e+18	2.106023e-01	
1.157208e+02	1.777601e+01	1.564237e-01	5.925613e-01	-2.286594e+01	3.044668e+04	1.150972e+04	2.477454e+02	-1.399876e+18	4.556037e-01	
1.157454e+02	1.987050e+01	1.267342e-01	2.825898e-01	-3.508148e+01	2.653936e+04	8.673425e+03	2.304306e+02	-1.406947e+18	8.943051e-01	
1.157763e+02	2.250660e+01	1.032651e-01	2.732433e-01	-3.566561e+01	2.332584e+04	6.866562e+03	2.238872e+02	-1.411452e+18	1.132014e+00	
1.158152e+02	2.582421e+01	1.315909e-01	-1.133194e-01	-3.960111e+01	2.971824e+04	9.503758e+03	2.431717e+02	-1.404877e+18	9.464213e-01	
1.158642e+02	2.999938e+01	2.044684e-01	-4.591615e+00	-9.635837e-01	4.367172e+04	1.744716e+04	2.873043e+02	-1.385073e+18	6.638725e-02	
1.156859e+02	1.373802e+01	7.430611e-01	5.434249e+02	4.804453e+01	2.100595e+05	3.917640e+03	1.775185e+01	-1.418804e+18	8.545583e+00	
1.157056e+02	1.478928e+01	1.674312e-01	-1.629579e+00	-1.724106e+01	3.570301e+04	1.392296e+04	2.799876e+02	-1.393859e+18	3.031429e-01	
1.157303e+02	1.611146e+01	1.616362e-01	-2.696088e-04	-1.144386e+01	3.172181e+04	1.252668e+04	2.609402e+02	-1.397341e+18	2.149419e-01	
1.157614e+02	1.777553e+01	1.561824e-01	9.502969e-01	-2.401046e+01	3.061801e+04	1.150780e+04	2.480869e+02	-1.399881e+18	4.790315e-01	
1.158005e+02	1.986986e+01	1.254165e-01	3.926653e-01	-3.495933e+01	2.655341e+04	8.672166e+03	2.328180e+02	-1.406950e+18	8.959534e-01	
1.158497e+02	2.250574e+01	1.028666e-01	4.419643e-01	-3.552568e+01	2.330606e+04	6.868238e+03	2.248094e+02	-1.411448e+18	1.129671e+00	
1.159117e+02	2.582308e+01	1.309216e-01	-1.829593e-01	-3.923171e+01	2.960213e+04	9.489582e+03	2.440504e+02	-1.404913e+18	9.406949e-01	
1.159896e+02	2.999791e+01	2.042381e-01	-7.344156e+00	-9.163779e-01	4.353937e+04	1.736211e+04	2.862261e+02	-1.385285e+18	1.050420e-01	
1.157000e+02	1.373776e+01	7.553516e-01	5.489109e+02	4.892092e+01	2.131026e+05	4.829076e+03	2.152576e+01	-1.416532e+18	7.711685e+00	
1.157278e+02	1.478887e+01	1.708971e-01	-2.230750e+00	-1.754322e+01	3.569289e+04	1.391116e+04	2.740767e+02	-1.393889e+18	3.065344e-01	
1.157628e+02	1.611086e+01	1.626549e-01	5.084019e-02	-1.182387e+01	3.176921e+04	1.253578e+04	2.594943e+02	-1.397318e+18	2.213046e-01	
1.158068e+02	1.777468e+01	1.557943e-01	1.338385e+00	-2.506892e+01	3.077845e+04	1.150231e+04	2.485862e+02	-1.399895e+18	5.012120e-01	
1.158622e+02	1.986870e+01	1.241602e-01	4.927170e-01	-3.478426e+01	2.655084e+04	8.670937e+03	2.351404e+02	-1.406954e+18	8.960622e-01	
1.159319e+02	2.250420e+01	1.024996e-01	6.228149e-01	-3.538864e+01	2.328605e+04	6.870033e+03	2.256733e+02	-1.411443e+18	1.127267e+00	
1.160197e+02	2.582107e+01	1.300870e-01	-2.625985e-01	-3.867970e+01	2.941592e+04	9.466079e+03	2.450077e+02	-1.404971e+18	9.315948e-01	
1.161301e+02	2.999528e+01	2.033661e-01	-1.011915e+01	-8.665426e-01	4.333781e+04	1.723368e+04	2.853272e+02	-1.385605e+18	1.449901e-01	
1.157157e+02	1.373734e+01	7.625435e-01	5.517530e+02	5.049576e+01	2.148242e+05	5.414621e+03	2.390821e+01	-1.415072e+18	7.287449e+00	
1.157527e+02	1.478821e+01	1.731516e-01	-2.912201e+00	-1.805261e+01	3.570220e+04	1.389465e+04	2.701871e+02	-1.393930e+18	3.150774e-01	
1.157992e+02	1.610989e+01	1.632950e-01	1.398055e-01	-1.240162e+01	3.184523e+04	1.254970e+04	2.587641e+02	-1.397283e+18	2.315469e-01	
1.158577e+02	1.777333e+01	1.551520e-01	1.737425e+00	-2.600289e+01	3.092941e+04	1.149627e+04	2.494843e+02	-1.399910e+18	5.215160e-01	
1.159313e+02	1.986687e+01	1.230631e-01	5.829606e-01	-3.459657e+01	2.654492e+04	8.672196e+03	2.372711e+02	-1.406950e+18	8.951633e-01	
1.160240e+02	2.250176e+01	1.021815e-01	8.156096e-01	-3.525812e+01	2.326666e+04	6.872174e+03	2.264463e+02	-1.411438e+18	1.124807e+00	
1.161406e+02	2.581787e+01	1.290125e-01	-3.565244e-01	-3.788112e+01	2.914030e+04	9.431364e+03	2.461423e+02	-1.405058e+18	9.178567e-01	
1.162874e+02	2.999112e+01	2.018766e-01	-1.293693e+01	-8.203110e-01	4.305421e+04	1.705521e+04	2.844558e+02	-1.386050e+18	1.867098e-01	
1.157333e+02	1.373672e+01	7.699841e-01	5.551382e+02	5.205793e+01	2.164379e+05	5.823248e+03	2.546403e+01	-1.414053e+18	7.037440e+00	
1.157805e+02	1.478723e+01	1.740454e-01	-3.647845e+00	-1.887203e+01	3.577063e+04	1.388370e+04	2.685876e+02	-1.393957e+18	3.304730e-01	
1.158399e+02	1.610846e+01	1.636133e-01	2.552724e-01	-1.344535e+01	3.196935e+04	1.256668e+04	2.586100e+02	-1.397241e+18	2.506495e-01	
1.159146e+02	1.777133e+01	1.541425e-01	2.137895e+00	-2.688394e+01	3.107891e+04	1.148787e+04	2.509346e+02	-1.399931e+18	5.416477e-01	
1.160087e+02	1.986415e+01	1.221584e-01	6.641356e-01	-3.441444e+01	2.653698e+04	8.675023e+03	2.391062e+02	-1.406943e+18	8.936358e-01	
1.161271e+02	2.249814e+01	1.019053e-01	1.014816e+00	-3.512575e+01	2.324247e+04	6.873468e+03	2.271028e+02	-1.411435e+18	1.122164e+00	
1.162760e+02	2.581310e+01	1.275641e-01	-4.742888e-01	-3.674469e+01	2.874627e+04	9.381302e+03	2.476158e+02	-1.405182e+18	8.977822e-01	
1.164635e+02	2.998493e+01	1.998352e-01	-1.584844e+01	-7.718973e-01	4.267948e+04	1.681981e+04	2.833953e+02	-1.386637e+18	2.313079e-01	
1.157531e+02	1.373584e+01	7.811427e-01	5.610049e+02	5.445312e+01	2.184257e+05	6.030058e+03	2.599170e+01	-1.413538e+18	6.940855e+00	
1.158117e+02	1.478583e+01	1.743375e-01	-4.347382e+00	-2.003118e+01	3.591387e+04	1.388356e+04	2.681349e+02	-1.393958e+18	3.521205e-01	
1.158855e+02	1.610641e+01	1.635071e-01	3.433380e-01	-1.560323e+01	3.221495e+04	1.258804e+04	2.592179e+02	-1.397188e+18	2.907424e-01	
1.159784e+02	1.776846e+01	1.528508e-01	2.521637e+00	-2.792268e+01	3.127303e+04	1.148071e+04	2.528975e+02	-1.399948e+18	5.656378e-01	
1.160953e+02	1.986026e+01	1.215033e-01	7.389334e-01	-3.424151e+01	2.653186e+04	8.681887e+03	2.405856e+02	-1.406926e+18	8.912282e-01	
1.162425e+02	2.249295e+01	1.015458e-01	1.208780e+00	-3.488127e+01	2.317290e+04	6.869919e+03	2.277892e+02	-1.411444e+18	1.116817e+00	
1.164277e+02	2.580629e+01	1.256590e-01	-6.051740e-01	-3.519232e+01	2.822582e+04	9.318537e+03	2.496879e+02	-1.405339e+18	8.693154e-01	
1.166607e+02	2.997607e+01	1.974029e-01	-1.881329e+01	-8.238048e-01	4.224579e+04	1.653903e+04	2.820981e+02	-1.387337e+18	2.785384e-01	
1.157751e+02	1.373460e+01	8.060815e-01	5.765250e+02	6.283769e+01	2.260400e+05	6.967956e+03	2.910516e+01	-1.411199e+18	6.539979e+00	
1.158466e+02	1.478388e+01	1.746576e-01	-4.956309e+00	-2.126511e+01	3.610093e+04	1.389442e+04	2.678530e+02	-1.393931e+18	3.746075e-01	
1.159366e+02	1.610356e+01	1.629549e-01	3.081237e-01	-1.966323e+01	3.270651e+04	1.260795e+04	2.605077e+02	-1.397138e+18	3.666808e-01	
1.160498e+02	1.776447e+01	1.513236e-01	2.799804e+00	-2.930627e+01	3.150913e+04	1.145817e+04	2.549483e+02	-1.400005e+18	5.975285e-01	
1.161923e+02	1.985484e+01	1.210911e-01	8.138037e-01	-3.401673e+01	2.651727e+04	8.694628e+03	2.417588e+02	-1.406894e+18	8.862804e-01	
1.163717e+02	2.248573e+01	1.010068e-01	1.411848e+00	-3.438866e+01	2.302257e+04	6.863497e+03	2.287908e+02	-1.411460e+18	1.104763e+00	
1.165974e+02	2.579680e+01	1.229257e-01	-8.291328e-01	-3.308779e+01	2.749987e+04	9.217589e+03	2.524748e+02	-1.405591e+18	8.310171e-01	
1.168814e+02	2.996373e+01	1.939581e-01	-2.192704e+01	-9.863958e-01	4.162693e+04	1.615400e+04	2.804243e+02	-1.388297e+18	3.314066e-01	
1.157998e+02	1.373292e+01	8.402280e-01	5.966642e+02	6.761431e+01	2.346155e+05	8.017119e+03	3.212660e+01	-1.408584e+18	6.183424e+00	
1.158857e+02	1.478121e+01	1.754618e-01	-5.234100e+00	-2.209335e+01	3.639075e+04	1.396869e+04	2.680505e+02	-1.393745e+18	3.876020e-01	
1.159938e+02	1.609966e+01	1.629712e-01	2.482873e-01	-2.495575e+01	3.356249e+04	1.266063e+04	2.615700e+02	-1.397007e+18	4.643495e-01	
1.161297e+02	1.775903e+01	1.503208e-01	3.064063e+00	-3.100779e+01	3.190110e+04	1.146870e+04	2.568851e+02	-1.399978e+18	6.342350e-01	
1.163009e+02	1.984744e+01	1.207661e-01	8.943819e-01	-3.356438e+01	2.644828e+04	8.712286e+03	2.429017e+02	-1.406850e+18	8.748430e-01	
1.165163e+02	2.247588e+01	1.005552e-01	1.652554e+00	-3.370976e+01	2.284930e+04	6.874141e+03	2.301747e+02	-1.411433e+18	1.084929e+00	
1.167873e+02	2.578386e+01	1.201107e-01	-8.969835e-01	-3.070525e+01	2.684124e+04	9.165250e+03	2.569249e+02	-1.405721e+18	7.824757e-01	
1.171285e+02	2.994689e+01	1.872081e-01	-2.554301e+01	-1.587237e+00	4.025701e+04	1.540308e+04	2.770299e+02	-1.390169e+18	4.027901e-01	
1.158275e+02	1.373065e+01	9.557232e-01	6.767689e+02	1.016178e+02	2.679265e+05	9.162651e+03	3.227993e+01	-1.405728e+18	6.180749e+00	
1.159294e+02	1.477763e+01	1.729666e-01	-5.746584e+00	-2.137131e+01	3.566713e+04	1.370055e+04	2.666977e+02	-1.394414e+18	3.842164e-01	
1.160577e+02	1.609442e+01	1.619566e-01	-1.553622e-01	-2.790032e+01	3.385827e+04	1.258200e+04	2.615740e+02	-1.397203e+18	5.223695e-01	
1.162191e+02	1.775170e+01	1.481146e-01	2.769861e+00	-3.141145e+01	3.167862e+04	1.132877e+04	2.575304e+02	-1.400327e+18	6.506022e-01	
1.164223e+02	1.983749e+01	1.201730e-01	9.949225e-01	-3.262741e+01	2.625980e+04	8.730579e+03	2.446130e+02	-1.406805e+18	8.517172e-01	
1.166780e+02	2.246262e+01	9.907737e-02	1.681452e+00	-3.235094e+01	2.231760e+04	6.808675e+03	2.313831e+02	-1.411596e+18	1.054120e+00	
1.169998e+02	2.576644e+01	1.142750e-01	-1.915867e+00	-2.750363e+01	2.529436e+04	8.787408e+03	2.589126e+02	-1.406663e+18	7.353111e-01	
1.174048e+02	2.992424e+01	1.776674e-01	-2.941752e+01	-2.758357e+00	3.830459e+04	1.433910e+04	2.717427e+02	-1.392822e+18	4.947412e-01	
3.977838e+02	2.133601e+00	6.855377e-01	3.808329e+02	3.311877e+00	1.799208e+05	2.965275e+04	1.456388e+02	-1.354643e+18	2.257557e+00	
3.038854e+00	3.293461e+01	6.482735e+00	2.538856e+02	-1.242570e+01	1.425311e+06	5.681311e+05	2.950760e+02	-1.213884e+16	1.119413e-01	
1.157795e+02	1.365024e+01	1.174465e+00	6.833420e+02	1.014175e+02	3.227208e+05	4.781862e+04	1.370884e+02	-1.309353e+18	2.463694e+00	
1.157814e+02	1.371713e+01	9.323718e-01	6.080350e+02	1.114111e+02	2.631327e+05	2.328601e+04	8.409100e+01	-1.370516e+18	3.545628e+00	
1.158503e+02	1.372577e+01	9.766582e-01	6.354011e+02	1.581381e+02	2.774778e+05	2.319331e+04	7.995834e+01	-1.370747e+18	3.676896e+00	
1.163405e+02	1.345190e+01	1.192629e+00	6.427433e+02	9.974422e+01	3.139890e+05	5.464852e+04	1.542825e+02	-1.292325e+18	2.153273e+00	
1.159219e+02	1.359696e+01	1.212164e+00	6.700054e+02	1.133189e+02	3.274043e+05	5.477588e+04	1.521499e+02	-1.292007e+18	2.228760e+00	
1.158846e+02	1.365835e+01	1.072957e+00	6.239240e+02	1.336857e+02	2.968763e+05	4.285684e+04	1.344874e+02	-1.321723e+18	2.514859e+00	
1.159336e+02	1.374730e+01	1.127719e+00	7.448678e+02	1.926697e+02	3.178312e+05	2.215071e+04	6.613484e+01	-1.373347e+18	4.114187e+00	
1.161561e+02	1.353718e+01	1.129709e+00	6.141974e+02	1.115013e+02	3.002262e+05	5.110441e+04	1.523124e+02	-1.301161e+18	2.195697e+00	
1.160192e+02	1.353961e+01	1.250923e+00	6.753149e+02	9.932154e+01	3.328357e+05	5.864287e+04	1.578441e+02	-1.282366e+18	2.129936e+00	
1.159248e+02	1.370315e+01	9.698050e-01	5.873849e+02	1.568027e+02	2.719482e+05	3.255611e+04	1.130295e+02	-1.347404e+18	2.891667e+00	
1.160030e+02	1.383393e+01	1.026890e+00	7.010238e+02	1.199296e+02	2.808206e+05	1.381380e+04	4.529318e+01	-1.394132e+18	5.046781e+00	
1.160406e+02	1.363030e+01	1.014776e+00	5.703038e+02	1.363970e+02	2.761761e+05	4.270166e+04	1.416831e+02	-1.322110e+18	2.380748e+00	
1.159295e+02	1.341731e+01	1.617943e+00	8.264090e+02	2.545442e+01	4.168541e+05	8.223934e+04	1.711433e+02	-1.223537e+18	1.915647e+00	
1.160951e+02	1.374489e+01	1.039899e+00	6.332558e+02	1.881303e+02	2.905708e+05	3.229592e+04	1.045683e+02	-1.348053e+18	3.046576e+00	
1.176331e+02	1.073203e+01	1.608272e+00	8.255105e+02	-2.698143e+01	4.139590e+05	8.074774e+04	1.690497e+02	-1.227256e+18	1.937071e+00	
1.159072e+02	1.351523e+01	1.444546e+00	7.584322e+02	6.428686e+01	3.784768e+05	7.117834e+04	1.659052e+02	-1.251114e+18	2.006170e+00	
1.161012e+02	1.342326e+01	1.436680e+00	7.532988e+02	6.105256e+01	3.741611e+05	7.014964e+04	1.644027e+02	-1.253678e+18	2.012020e+00	
1.162176e+02	1.382413e+01	1.206008e+00	7.558262e+02	2.085129e+02	3.327025e+05	3.113297e+04	8.691883e+01	-1.350952e+18	3.419796e+00	
1.181625e+02	1.157374e+01	1.609712e+00	8.257852e+02	-1.923761e+01	4.142800e+05	8.094014e+04	1.693009e+02	-1.226776e+18	1.934037e+00	
1.181288e+02	1.036016e+01	1.586176e+00	8.173034e+02	-3.172564e+01	4.087967e+05	7.916593e+04	1.680469e+02	-1.231199e+18	1.950749e+00	
1.167340e+02	1.245699e+01	1.687976e+00	8.537561e+02	-9.978610e+00	4.324997e+05	8.662433e+04	1.727894e+02	-1.212605e+18	1.887106e+00	
1.172176e+02	1.129697e+01	1.639932e+00	8.369248e+02	-2.169194e+01	4.213034e+05	8.304057e+04	1.704936e+02	-1.221539e+18	1.917389e+00	
1.175123e+02	9.917650e+00	1.569495e+00	8.115629e+02	-2.927939e+01	4.050018e+05	7.796202e+04	1.672502e+02	-1.234201e+18	1.962091e+00	
1.164217e+02	1.229827e+01	1.697606e+00	8.570173e+02	-1.124422e+01	4.345998e+05	8.729389e+04	1.731373e+02	-1.210935e+18	1.881710e+00	
1.167550e+02	1.304124e+01	1.499028e+00	7.823861e+02	3.945973e+01	3.884794e+05	7.351404e+04	1.651216e+02	-1.245290e+18	1.994429e+00	
1.160464e+02	1.324060e+01	1.695858e+00	8.573049e+02	6.280660e+00	4.351513e+05	8.737744e+04	1.734815e+02	-1.210727e+18	1.882298e+00	
1.164212e+02	1.300896e+01	1.657349e+00	8.435539e+02	7.642212e+00	4.261654e+05	8.458907e+04	1.718477e+02	-1.217679e+18	1.904156e+00	
1.163306e+02	1.363498e+01	9.509192e-01	5.335525e+02	1.412590e+02	2.568115e+05	3.865346e+04	1.368637e+02	-1.332203e+18	2.433089e+00	
1.191793e+02	1.082976e+01	1.564710e+00	8.092330e+02	-2.873908e+01	4.038178e+05	7.771808e+04	1.672368e+02	-1.234809e+18	1.962480e+00	
1.175076e+02	1.185486e+01	1.645553e+00	8.388895e+02	-1.725893e+01	4.227026e+05	8.351305e+04	1.708779e+02	-1.220361e+18	1.912932e+00	
1.167724e+02	1.080451e+01	1.619278e+00	8.299033e+02	-2.061296e+01	4.166166e+05	8.152667e+04	1.695204e+02	-1.225314e+18	1.931020e+00	
1.167909e+02	1.184624e+01	1.671068e+00	8.479060e+02	-1.608961e+01	4.285068e+05	8.532561e+04	1.719210e+02	-1.215842e+18	1.898127e+00	
1.162506e+02	1.401630e+01	7.441556e-01	4.320475e+02	1.421917e+01	1.859469e+05	2.415615e+04	1.092968e+02	-1.368347e+18	2.724939e+00	
1.170696e+02	8.988942e+00	1.529643e+00	7.968586e+02	-2.968583e+01	3.957222e+05	7.514985e+04	1.654176e+02	-1.241212e+18	1.987739e+00	
1.163568e+02	1.326353e+01	1.492058e+00	7.781579e+02	4.706311e+01	3.869170e+05	7.330284e+04	1.654165e+02	-1.245817e+18	1.992248e+00	
1.161607e+02	1.257148e+01	1.714098e+00	8.626336e+02	-7.977109e+00	4.384160e+05	8.853352e+04	1.739064e+02	-1.207845e+18	1.871584e+00	
1.161476e+02	1.297105e+01	1.721330e+00	8.653350e+02	-3.942885e+00	4.403486e+05	8.913457e+04	1.743515e+02	-1.206346e+18	1.867109e+00	
1.175049e+02	1.261209e+01	1.495160e+00	7.816312e+02	2.712126e+01	3.874523e+05	7.315920e+04	1.647497e+02	-1.246175e+18	1.998576e+00	
1.210793e+02	1.156492e+01	1.167896e+00	6.439805e+02	5.232992e+01	3.078960e+05	5.167104e+04	1.489657e+02	-1.299748e+18	2.222860e+00	
1.208876e+02	9.303336e+00	1.506109e+00	7.871478e+02	-4.399730e+01	3.901932e+05	7.354176e+04	1.644073e+02	-1.245221e+18	2.002048e+00	
1.166344e+02	1.137222e+01	1.649511e+00	8.405311e+02	-1.713021e+01	4.235530e+05	8.372479e+04	1.709001e+02	-1.219833e+18	1.911945e+00	
1.226126e+02	9.788722e+00	1.355051e+00	7.274742e+02	-1.131412e+01	3.540700e+05	6.349860e+04	1.577800e+02	-1.270260e+18	2.096265e+00	
1.163860e+02	1.381356e+01	1.146167e+00	6.920084e+02	1.998906e+02	3.156277e+05	3.571771e+04	1.049250e+02	-1.339522e+18	3.008732e+00	
1.160169e+02	9.776251e+00	1.576858e+00	8.149315e+02	-2.023650e+01	4.068827e+05	7.846865e+04	1.675510e+02	-1.232938e+18	1.958603e+00	
1.185728e+02	9.285685e+00	1.536191e+00	7.986060e+02	-3.796532e+01	3.970959e+05	7.561784e+04	1.657382e+02	-1.240045e+18	1.982549e+00	
1.164093e+02	1.272965e+01	1.706263e+00	8.602838e+02	-6.749774e+00	4.368836e+05	8.799850e+04	1.736492e+02	-1.209179e+18	1.876422e+00	
1.270540e+01	2.101753e+01	6.464821e+00	2.965606e+02	-4.299922e+01	1.421767e+06	5.659287e+05	2.947466e+02	-1.762983e+16	1.324061e-01	
1.760351e+01	1.889450e+01	6.457606e+00	3.121002e+02	-5.831609e+01	1.420511e+06	5.650824e+05	2.946346e+02	-1.973959e+16	1.404722e-01	
1.337608e+01	1.585681e+01	6.457167e+00	3.150771e+02	-3.801565e+01	1.420305e+06	5.650023e+05	2.946129e+02	-1.993938e+16	1.404252e-01	
2.261421e+01	1.723044e+01	6.446756e+00	3.320419e+02	-7.562473e+01	1.418441e+06	5.637784e+05	2.944495e+02	-2.299069e+16	1.509683e-01	
1.890160e+01	1.298610e+01	6.447783e+00	3.377231e+02	-4.790232e+01	1.418665e+06	5.638569e+05	2.944436e+02	-2.279500e+16	1.511932e-01	
1.187766e+02	1.277627e+01	1.081085e+00	5.994661e+02	9.472452e+01	2.866005e+05	4.649898e+04	1.448195e+02	-1.312643e+18	2.287728e+00	
1.207842e+02	1.382802e+01	7.133478e-01	4.090050e+02	1.280392e+02	1.938862e+05	2.605671e+04	1.229877e+02	-1.363608e+18	2.656779e+00	
1.231620e+02	1.577043e+01	4.640451e-01	2.657572e+02	1.312568e+02	1.283490e+05	1.347465e+04	9.776895e+01	-1.394977e+18	3.167969e+00	
1.261077e+02	1.213314e+01	7.711828e-01	4.486327e+02	9.327957e+01	2.083135e+05	2.887075e+04	1.260504e+02	-1.356592e+18	2.595430e+00	
1.268772e+02	1.756192e+01	3.730684e-01	2.131929e+02	1.157439e+02	1.038806e+05	1.000420e+04	9.028950e+01	-1.403630e+18	3.355954e+00	
3.872733e+02	1.740476e+01	7.152967e-01	3.958605e+02	2.755186e+01	1.879460e+05	3.115063e+04	1.466304e+02	-1.350908e+18	2.246730e+00	
3.827594e+02	1.744944e+01	7.038208e-01	3.899944e+02	2.129636e+01	1.847230e+05	3.054035e+04	1.461018e+02	-1.352430e+18	2.251505e+00	
3.856100e+02	1.337484e+01	7.330479e-01	4.073742e+02	2.148508e+01	1.928662e+05	3.174278e+04	1.457995e+02	-1.349432e+18	2.260185e+00	
3.811501e+02	1.327801e+01	7.529028e-01	4.163879e+02	2.260522e+01	1.977443e+05	3.290585e+04	1.471559e+02	-1.346532e+18	2.239067e+00	
3.772992e+02	1.744422e+01	6.413239e-01	3.616737e+02	2.367896e+00	1.690508e+05	2.682551e+04	1.408361e+02	-1.361692e+18	2.330502e+00	
3.766109e+02	1.315138e+01	7.602905e-01	4.198498e+02	2.042572e+01	1.994753e+05	3.331024e+04	1.475169e+02	-1.345524e+18	2.232362e+00	
3.734933e+02	1.699179e+01	6.114322e-01	3.485187e+02	-7.628337e+00	1.617925e+05	2.496657e+04	1.374846e+02	-1.366326e+18	2.384583e+00	
3.719059e+02	1.310428e+01	7.277875e-01	4.054118e+02	8.467859e+00	1.912706e+05	3.132185e+04	1.449060e+02	-1.350482e+18	2.269871e+00	
3.684358e+02	1.703922e+01	5.808914e-01	3.342876e+02	-1.704061e+01	1.544343e+05	2.319900e+04	1.344677e+02	-1.370733e+18	2.436899e+00	
3.684085e+02	1.283199e+01	6.949030e-01	3.904646e+02	-2.346931e+00	1.830859e+05	2.935252e+04	1.422213e+02	-1.355391e+18	2.310685e+00	
3.633882e+02	1.723693e+01	5.838397e-01	3.359674e+02	-1.982376e+01	1.552312e+05	2.329174e+04	1.343235e+02	-1.370502e+18	2.439159e+00	
3.627640e+02	1.247132e+01	6.402578e-01	3.648112e+02	-1.844779e+01	1.695676e+05	2.614774e+04	1.375064e+02	-1.363381e+18	2.385966e+00	
3.587578e+02	1.713046e+01	6.004987e-01	3.442135e+02	-2.056401e+01	1.594396e+05	2.417348e+04	1.355410e+02	-1.368303e+18	2.418866e+00	
3.571773e+02	1.329830e+01	6.108300e-01	3.511475e+02	-2.662239e+01	1.626695e+05	2.446295e+04	1.348441e+02	-1.367582e+18	2.434757e+00	
3.549054e+02	1.745548e+01	6.159242e-01	3.513588e+02	-2.007167e+01	1.631991e+05	2.506176e+04	1.370023e+02	-1.366089e+18	2.394004e+00	
3.524179e+02	1.327488e+01	6.223695e-01	3.564487e+02	-2.818803e+01	1.655677e+05	2.514208e+04	1.360180e+02	-1.365889e+18	2.415806e+00	
3.501170e+02	1.747155e+01	6.359950e-01	3.612191e+02	-2.031481e+01	1.682523e+05	2.613961e+04	1.383850e+02	-1.363402e+18	2.371461e+00	
3.483713e+02	1.201404e+01	6.318907e-01	3.599057e+02	-3.092897e+01	1.678380e+05	2.583416e+04	1.376562e+02	-1.364163e+18	2.389485e+00	
3.446342e+02	1.700342e+01	6.596774e-01	3.733229e+02	-2.172451e+01	1.743812e+05	2.735540e+04	1.396224e+02	-1.360370e+18	2.352704e+00	
3.421704e+02	1.231337e+01	6.583451e-01	3.720121e+02	-3.091478e+01	1.743820e+05	2.741976e+04	1.402341e+02	-1.360210e+18	2.348166e+00	
3.397410e+02	1.679771e+01	6.798413e-01	3.830685e+02	-2.287685e+01	1.794919e+05	2.847346e+04	1.410186e+02	-1.357583e+18	2.331104e+00	
3.365178e+02	1.256078e+01	6.837414e-01	3.832523e+02	-3.110493e+01	1.805366e+05	2.896736e+04	1.426463e+02	-1.356352e+18	2.309117e+00	
3.324009e+02	1.766853e+01	7.101394e-01	3.967015e+02	-2.248124e+01	1.868262e+05	3.026668e+04	1.435042e+02	-1.353112e+18	2.290561e+00	
3.300655e+02	1.273769e+01	7.111691e-01	3.952258e+02	-3.284537e+01	1.872855e+05	3.068219e+04	1.452637e+02	-1.352076e+18	2.269061e+00	
3.270639e+02	1.751354e+01	7.341035e-01	4.077088e+02	-2.386934e+01	1.928141e+05	3.168350e+04	1.453180e+02	-1.349580e+18	2.263257e+00	
3.256309e+02	1.230000e+01	7.315293e-01	4.035223e+02	-3.559048e+01	1.922366e+05	3.203057e+04	1.474268e+02	-1.348715e+18	2.236599e+00	
3.218861e+02	1.691983e+01	7.577586e-01	4.182329e+02	-2.654115e+01	1.988079e+05	3.316985e+04	1.473860e+02	-1.345874e+18	2.234033e+00	
3.213244e+02	1.289118e+01	7.461892e-01	4.099168e+02	-3.400768e+01	1.957514e+05	3.295328e+04	1.486939e+02	-1.346414e+18	2.216906e+00	
3.187800e+02	1.614270e+01	7.715231e-01	4.236078e+02	-2.933528e+01	2.022645e+05	3.416600e+04	1.491038e+02	-1.343391e+18	2.210382e+00	
3.174777e+02	1.327625e+01	7.343390e-01	4.042633e+02	-2.639312e+01	1.925129e+05	3.230497e+04	1.481209e+02	-1.348030e+18	2.223007e+00	
3.137888e+02	1.712671e+01	7.976650e-01	4.349760e+02	-2.803693e+01	2.085548e+05	3.578532e+04	1.510525e+02	-1.339353e+18	2.180414e+00	
3.131096e+02	1.296323e+01	6.001736e-01	3.431768e+02	9.035595e+00	1.586931e+05	2.420461e+04	1.357891e+02	-1.368226e+18	2.407226e+00	
3.086492e+02	1.740944e+01	7.915034e-01	4.320676e+02	-2.011543e+01	2.068198e+05	3.545408e+04	1.508193e+02	-1.340179e+18	2.182219e+00	
3.080902e+02	1.238700e+01	5.223769e-01	3.067428e+02	2.599854e+01	1.404679e+05	1.990412e+04	1.282929e+02	-1.378948e+18	2.551534e+00	
3.032532e+02	1.832710e+01	6.920774e-01	3.878432e+02	1.134653e+01	1.819907e+05	2.928927e+04	1.424943e+02	-1.355549e+18	2.303278e+00	
3.023316e+02	1.380668e+01	5.466143e-01	3.188759e+02	2.966068e+01	1.466919e+05	2.115064e+04	1.302825e+02	-1.375840e+18	2.517249e+00	
2.991097e+02	1.691365e+01	5.592646e-01	3.251116e+02	3.661027e+01	1.499684e+05	2.170930e+04	1.306989e+02	-1.374447e+18	2.509419e+00	
2.968229e+02	1.354504e+01	5.765098e-01	3.336435e+02	2.948340e+01	1.542480e+05	2.277972e+04	1.330409e+02	-1.371778e+18	2.470189e+00	
2.941984e+02	1.728464e+01	5.766751e-01	3.335711e+02	3.950937e+01	1.544261e+05	2.263898e+04	1.321811e+02	-1.372129e+18	2.484595e+00	
2.918538e+02	1.298751e+01	6.016702e-01	3.458779e+02	2.914635e+01	1.605984e+05	2.419050e+04	1.353723e+02	-1.368261e+18	2.431609e+00	
2.891898e+02	1.711010e+01	6.063687e-01	3.480638e+02	3.993678e+01	1.619280e+05	2.428649e+04	1.348564e+02	-1.368022e+18	2.439969e+00	
2.859775e+02	1.370042e+01	6.298312e-01	3.596122e+02	3.246311e+01	1.677852e+05	2.571415e+04	1.374648e+02	-1.364462e+18	2.397920e+00	
2.839257e+02	1.686119e+01	6.353625e-01	3.619958e+02	4.092810e+01	1.692448e+05	2.592142e+04	1.373665e+02	-1.363946e+18	2.399151e+00	
2.810096e+02	1.285021e+01	6.571153e-01	3.725932e+02	3.175197e+01	1.746317e+05	2.729278e+04	1.398459e+02	-1.360527e+18	2.359921e+00	
2.786131e+02	1.690338e+01	6.624927e-01	3.747116e+02	4.308681e+01	1.761008e+05	2.749186e+04	1.397226e+02	-1.360030e+18	2.362070e+00	
2.760879e+02	1.229795e+01	6.860022e-01	3.862190e+02	3.173358e+01	1.818774e+05	2.896915e+04	1.421850e+02	-1.356347e+18	2.323272e+00	
2.734700e+02	1.697600e+01	6.901528e-01	3.872313e+02	4.521069e+01	1.830076e+05	2.915714e+04	1.422470e+02	-1.355878e+18	2.322744e+00	
2.691306e+02	1.263102e+01	7.282231e-01	4.062220e+02	3.492106e+01	1.926050e+05	3.138681e+04	1.451197e+02	-1.350320e+18	2.279253e+00	
2.680335e+02	1.684541e+01	7.227294e-01	4.018351e+02	4.703655e+01	1.910739e+05	3.113353e+04	1.450428e+02	-1.350951e+18	2.279486e+00	
2.661183e+02	1.189186e+01	7.479801e-01	4.152199e+02	3.382055e+01	1.974905e+05	3.259087e+04	1.467065e+02	-1.347318e+18	2.255054e+00	
2.630468e+02	1.635657e+01	7.592140e-01	4.184719e+02	4.846208e+01	2.002123e+05	3.333465e+04	1.478343e+02	-1.345463e+18	2.238026e+00	
2.612677e+02	1.265902e+01	7.779153e-01	4.286766e+02	3.783826e+01	2.051211e+05	3.443521e+04	1.490438e+02	-1.342719e+18	2.222202e+00	
2.587621e+02	1.702702e+01	7.647047e-01	4.178251e+02	4.785843e+01	2.007528e+05	3.404320e+04	1.498926e+02	-1.343697e+18	2.202921e+00	
2.566261e+02	1.282443e+01	8.108837e-01	4.429126e+02	4.074352e+01	2.133365e+05	3.654052e+04	1.517259e+02	-1.337471e+18	2.183822e+00	
2.537001e+02	1.711559e+01	4.588306e-01	2.762065e+02	-2.758643e+01	1.245742e+05	1.624385e+04	1.192010e+02	-1.388073e+18	2.717406e+00	
2.516143e+02	1.287433e+01	8.565082e-01	4.628271e+02	4.551548e+01	2.249298e+05	3.946907e+04	1.551561e+02	-1.330169e+18	2.137719e+00	
2.487719e+02	1.716209e+01	4.755361e-01	2.856120e+02	-3.013483e+01	1.292894e+05	1.702550e+04	1.205480e+02	-1.386124e+18	2.697583e+00	
2.465703e+02	1.284597e+01	5.727347e-01	3.331063e+02	-2.905969e+01	1.526055e+05	2.199994e+04	1.293337e+02	-1.373722e+18	2.517547e+00	
2.441801e+02	1.723894e+01	4.981214e-01	2.974306e+02	-3.215096e+01	1.351738e+05	1.813505e+04	1.225821e+02	-1.383358e+18	2.660218e+00	
2.418077e+02	1.297889e+01	4.993582e-01	2.974145e+02	-4.533629e+01	1.358370e+05	1.808396e+04	1.219341e+02	-1.383486e+18	2.675674e+00	
2.399341e+02	1.789390e+01	5.202742e-01	3.086831e+02	-3.254123e+01	1.408255e+05	1.929427e+04	1.248647e+02	-1.380468e+18	2.618294e+00	
2.373610e+02	1.344375e+01	5.289501e-01	3.123961e+02	-4.652435e+01	1.433377e+05	1.961664e+04	1.248687e+02	-1.379664e+18	2.620508e+00	
2.344432e+02	1.714397e+01	5.516368e-01	3.248598e+02	-3.797732e+01	1.490501e+05	2.083505e+04	1.271701e+02	-1.376627e+18	2.578431e+00	
2.317975e+02	1.366100e+01	5.610601e-01	3.281492e+02	-5.007242e+01	1.515254e+05	2.133125e+04	1.280120e+02	-1.375390e+18	2.564440e+00	
2.287925e+02	1.687796e+01	5.863371e-01	3.418706e+02	-4.264646e+01	1.579404e+05	2.268947e+04	1.302928e+02	-1.372003e+18	2.524439e+00	
2.269094e+02	1.332647e+01	5.900376e-01	3.418086e+02	-5.508735e+01	1.588645e+05	2.291527e+04	1.307642e+02	-1.371440e+18	2.516429e+00	
2.223508e+02	1.799974e+01	6.326316e-01	3.643825e+02	-4.342202e+01	1.696110e+05	2.527300e+04	1.345084e+02	-1.365562e+18	2.452740e+00	
2.223635e+02	1.291306e+01	6.184691e-01	3.548015e+02	-6.055667e+01	1.660138e+05	2.451135e+04	1.334421e+02	-1.367461e+18	2.470666e+00	
2.189198e+02	1.753541e+01	6.577189e-01	3.760988e+02	-4.766368e+01	1.759635e+05	2.668218e+04	1.365918e+02	-1.362049e+18	2.418617e+00	
2.170973e+02	1.223380e+01	6.528239e-01	3.698126e+02	-6.824719e+01	1.745762e+05	2.650516e+04	1.367030e+02	-1.362490e+18	2.416165e+00	
2.134439e+02	1.623498e+01	6.993419e-01	3.947076e+02	-5.746030e+01	1.864147e+05	2.906717e+04	1.399448e+02	-1.356103e+18	2.364390e+00	
2.112073e+02	1.165177e+01	6.932024e-01	3.869538e+02	-7.655596e+01	1.845241e+05	2.891826e+04	1.404609e+02	-1.356474e+18	2.354596e+00	
2.079836e+02	1.615244e+01	7.485789e-01	4.167125e+02	-6.317725e+01	1.986464e+05	3.199781e+04	1.439217e+02	-1.348796e+18	2.301592e+00	
2.065691e+02	1.255711e+01	7.368501e-01	4.072887e+02	-7.807269e+01	1.954319e+05	3.149313e+04	1.439064e+02	-1.350055e+18	2.300789e+00	
2.036604e+02	1.694210e+01	7.945062e-01	4.375947e+02	-6.391682e+01	2.100317e+05	3.478099e+04	1.473969e+02	-1.341857e+18	2.248394e+00	
2.017085e+02	1.269873e+01	7.813279e-01	4.265456e+02	-8.272461e+01	2.064201e+05	3.424403e+04	1.475690e+02	-1.343196e+18	2.244968e+00	
1.988658e+02	1.709897e+01	8.453726e-01	4.596784e+02	-6.668118e+01	2.225046e+05	3.795911e+04	1.511859e+02	-1.333934e+18	2.191442e+00	
1.967748e+02	1.283214e+01	7.990759e-01	4.334729e+02	-7.864105e+01	2.104317e+05	3.559576e+04	1.499871e+02	-1.339826e+18	2.207683e+00	