 TITLE = "Adapted Mesh"
 VARIABLES = "X", "Y"
 ZONE T = "Domain", N=        7696 E=       14269 
 DATAPACKING=POINT, ZONETYPE=FEQUADRILATERAL
   115.652200000000        13.7382300000000     
   115.652200000000        14.7896122899470     
   115.652200000000        16.1119466301946     
   115.652200000000        17.7762056196718     
   115.652200000000        19.8707748919024     
   115.652200000000        22.5069598288973     
   115.652200000000        25.8246913631930     
   115.652200000000        30.0000000000000     
   115.662200000000        13.7382299995359     
   115.668018825858        14.7896122892128     
   115.675337223113        16.1119466291208     
   115.684547985713        17.7762056181705     
   115.696140280880        19.8707748898631     
   115.710730121936        22.5069598261809     
   115.729091951041        25.8246913596245     
   115.752200000000        29.9999999860769     
   115.673399828472        13.7381680140919     
   115.685735639483        14.7895142355183     
   115.701250516132        16.1118032120201     
   115.720777174854        17.7760051077507     
   115.745352641767        19.8705025240864     
   115.776282854550        22.5065970246292     
   115.815209617297        25.8242147414576     
   115.864198284721        29.9993801212521     
   115.685942965079        13.7380208405238     
   115.705577408853        14.7892814242136     
   115.730271851153        16.1114626932616     
   115.761351695230        17.7755290309168     
   115.800467536330        19.8698558393064     
   115.849697986057        22.5057356159590     
   115.911656241885        25.8230830951912     
   115.989629650791        29.9979083739534     
   115.699989795288        13.7377584865577     
   115.727797844947        14.7888664110430     
   115.762772315610        16.1108556790542     
   115.806790361521        17.7746803687072     
   115.862189702815        19.8687030486325     
   115.931914254552        22.5042000550299     
   116.019665059956        25.8210658043834     
   116.130097952880        29.9952848212987     
   115.715719485094        13.7373423420753     
   115.752680367332        14.7882081193327     
   115.799166449865        16.1098928363082     
   115.857672739635        17.7733342251701     
   115.931306401640        19.8668744981234     
   116.023980320791        22.5017643563534     
   116.140613713805        25.8178659883049     
   116.287394850944        29.9911233619440     
   115.733332011404        13.7367228763120     
   115.780541315993        14.7872281972284     
   115.839916944947        16.1084595645914     
   115.914645714580        17.7713303782630     
   116.008696336946        19.8641525482116     
   116.127066652044        22.4981386157658     
   116.276039864877        25.8131027952463     
   116.463520114043        29.9849286880627     
   115.753050336998        13.7358367414360     
   115.811733391872        14.7858264358984     
   115.885539674818        16.1064092946166     
   115.978430526045        17.7684639105169     
   116.095339213459        19.8602588467511     
   116.242478252190        22.4929520576442     
   116.427657917501        25.8062891313764     
   116.660703369991        29.9760673211394     
   115.775122705272        13.7346031340164     
   115.846649286874        14.7838750138021     
   115.936609005763        16.1035550696879     
   116.049830191411        17.7644734391160     
   116.192325819631        19.8548383412030     
   116.371668092851        22.4857317385317     
   116.597376663580        25.7968036833565     
   116.881427052747        29.9637312266430     
   115.799825009498        13.7329192305196     
   115.885725431758        14.7812112761823     
   115.993763278197        16.0996589847086     
   116.129737169839        17.7590263506510     
   116.300868438246        19.8474392220816     
   116.516250980708        22.4758758310459     
   116.787317500302        25.7838558209852     
   117.128450095023        29.9468921689925     
   115.827463161390        13.7306544701587     
   115.929445742940        14.7776286912037     
   116.057710286885        16.0944189582813     
   116.219141024111        17.7517003072869     
   116.422311253975        19.8374878016325     
   116.678017420766        22.4626201613250     
   116.999832642535        25.7664416369102     
   117.404831613976        29.9242445400459     
   397.802466706791        2.19915918917086     
   3.03065706153655        32.9386358612159     
   115.769877579367        13.6274493334618     
   115.761108523595        13.7200913942984     
   115.834585260729        13.7160492005893     
   116.226757597798        13.5312100824751     
   115.918478389085        13.6061320264631     
   115.865728006213        13.6437495012218     
   115.910928688419        13.7217850299702     
   116.083424771327        13.5884838036294     
   115.973669649006        13.5264198057174     
   115.883377330358        13.6837951033409     
   115.992542229913        13.7874979926000     
   115.966339783961        13.6370414421068     
   115.952245191080        13.4153224443842     
   115.980231119617        13.7052499838057     
   117.448850743603        10.7865782490410     
   115.932415230169        13.4775773719449     
   116.075108594494        13.4486872819182     
   116.117011107207        13.7894930236257     
   117.988273909712        11.5901772823980     
   118.168128914374        10.3893414405527     
   116.779171202933        12.4815197725953     
   117.036530795556        11.4032703063803     
   117.287169581890        10.0161923081123     
   116.303816184262        12.4246114292305     
   116.717978374644        13.1331177678828     
   116.109133323973        13.2450198892941     
   116.322546716690        13.1472180023746     
   116.120694923645        13.6809930236989     
   119.417082902978        10.8560019966040     
   117.235232048202        12.0469164696322     
   116.664478245223        10.7701309132352     
   116.617432473283        11.9665602316341     
   116.084828108888        14.0059057169637     
   116.876714294771        8.63442853829063     
   116.300257238332        13.3450115954834     
   116.190223814620        12.6057985805876     
   116.115030889258        12.9448545846193     
   117.468669455463        12.6139736748590     
   121.439057026436        11.5707250775680     
   120.746686655229        9.43954640832902     
   116.367691509401        11.4202463921186     
   122.842111908938        9.75911751685893     
   116.244016547640        13.8474513259458     
   116.062443355577        9.67027315607603     
   118.552067538162        9.13688269820745     
   116.424918290641        12.8005680671105     
   12.2957269259637        21.2444211763795     
   16.8229742059760        19.3509472551418     
   12.7334500048918        16.2057203809268     
   21.4204405401089        17.8106704741218     
   17.5172840904007        13.7128261302851     
   119.147527930443        12.7566378598982     
   121.317352795306        14.0699532027180     
   122.969256320933        16.1785175022526     
   125.462511234523        12.6332574893789     
   126.907476345916        18.5930116948386     
   387.391542297947        17.9126264247506     
   383.286525036464        17.6149994718401     
   386.349100938803        13.8336581386096     
   381.415355998872        13.3115040460475     
   378.500594424892        17.4099131284657     
   376.438713620925        13.0854569217551     
   373.571883901198        17.2875525139381     
   371.463716314020        12.9755256069646     
   368.617649654232        17.2168753983072     
   366.557533912371        12.9312577479320     
   363.693181648596        17.1551457899968     
   361.980890337795        12.9167563581263     
   358.584394788620        16.8912864052565     
   356.366451163971        13.6713012249949     
   353.522074919931        16.9734369164868     
   351.458150847874        12.8833769109531     
   348.636692211092        17.1443764964570     
   346.482907158354        12.8636213890037     
   343.646971791568        17.1516403990855     
   341.460452381010        12.9786563673829     
   338.753923462702        17.3236362097472     
   336.437903197479        12.2133122465760     
   333.800940493271        16.7629458605715     
   331.510972493294        12.6673433196393     
   328.682143629418        17.0352713606360     
   326.508120566163        12.8227946897397     
   323.674428494150        17.1274166385967     
   321.508829982062        12.8554298992167     
   318.678677811604        17.1435829089979     
   316.512992850047        12.8596919613772     
   313.685039578323        17.1461643041317     
   311.518214601456        12.8622839221254     
   308.692520861617        17.1521937504525     
   306.525707314702        12.8736266969680     
   303.704482513400        17.1771911157816     
   301.541520989173        12.9138040529252     
   298.732328537353        17.2541670940062     
   296.569725131848        13.0157791471233     
   293.814046510184        17.4269848698378     
   291.502959678747        13.1925095823684     
   289.314391113046        17.7247313899077     
   286.394822526929        12.5637121368819     
   283.719443058919        17.1112623805442     
   281.529352427538        12.8341192881625     
   278.729012851771        17.1460386630985     
   276.559167701533        12.8778631960771     
   273.727783992509        17.1760211767138     
   271.677517417793        13.0914818994833     
   268.321958071988        16.3467533561135     
   266.688650722314        12.6149045158134     
   264.133868813501        17.7898518006309     
   261.632866713592        13.0071776152568     
   258.789959951142        17.3543078033422     
   256.620090445787        13.1613075159810     
   253.864069335400        17.3064998018200     
   251.773633908627        13.3371132628881     
   248.935915188272        17.1764156130449     
   247.147264841384        12.6745399887392     
   244.018056136877        17.5478609876272     
   241.225471900932        14.0896294514814     
   239.893800476353        17.7728148114143     
   236.629684083882        12.8717726332239     
   233.397898765235        17.3354687906481     
   231.755520556633        13.0343594921565     
   228.364589659066        17.2394336696854     
   226.582773228115        12.8419109476956     
   223.731027175374        17.0215081378220     
   221.405752168804        12.7585897152762     
   217.718020862607        16.9183688290921     
   215.260766643361        13.5065853653241     
   213.125365775165        17.1217739286605     
   210.867925998513        12.8393332508624     
   208.357560783356        17.0953809217748     
   205.926521558342        12.9204786586784     
   203.440721641253        17.0977376512335     
   201.084862006236        12.8033990920256     
   198.415762703992        17.0713487422524     
   196.137537076279        12.7036503162984     
   193.084559273838        17.0544507171874     
   192.109105457504        13.2909034978704     
   188.326801942112        18.0058277161517     
   186.500867656895        13.2936292220276     
   183.647750304149        16.9076380875409     
   181.701386458612        12.8330358629174     
   178.908327420992        17.0305834815599     
   176.603070622757        12.9882129014937     
   173.881577410498        17.1561146986025     
   171.947706173980        12.7233477146931     
   168.716922346297        17.2915754778195     
   166.130979063101        12.1425379652648     
   163.537910663444        17.6551705122244     
   161.383114952417        12.3197715187995     
   159.116313950624        16.5996400511681     
   156.668636981885        12.6980146556943     
   154.065435219137        16.9035070158524     
   151.695656290682        12.8134819180611     
   148.954959714507        17.0670525784238     
   146.621331165658        12.8494312873197     
   143.751915964479        17.1304124239316     
   141.293650729513        12.8179614602931     
   136.886206431511        10.8425070333142     
   133.375137571989        14.1869700166254     
   116.445020425163        13.6504743570274     
   122.444011063942        7.68524831118700     
   117.284051839569        7.54824942662279     
   113.787244522483        9.86673638541345     
   115.806450753867        12.7708201582224     
   115.638651036652        10.7769039077466     
   113.199900913511        7.60393679642074     
   107.115915201810        8.11503623513348     
   111.290438567299        9.65755471167685     
   99.7140537726664        5.69770291014354     
   32.7065341294858        11.9263830628819     
   28.3811464581265        13.4832422305864     
   25.3716501317090        16.8625035134430     
   23.0552584585671        13.2565434298037     
   12.9811547458349        11.9288882295111     
   7.45774613132849        27.7421950177196     
   7.93882582873705        23.1296460727175     
   11.7707745409613        26.1254629369301     
   16.2441525537268        24.4291305740990     
   8.26924906737565        18.2286201643924     
   20.7346929387218        22.7031007352599     
   118.825647214801        14.8065460315646     
   120.364347165887        16.4641040177067     
   121.460016745354        18.6077591897890     
   122.827836239549        21.8618301786555     
   127.427292042701        23.3429096336115     
   390.849800231916        21.0548696668832     
   385.458027223242        21.6231310235960     
   391.007559628674        15.4631607697310     
   390.438284744146        9.61818019246865     
   384.547611865368        9.10813047485027     
   380.597549682929        21.6284766605184     
   379.362152790998        8.84584794282534     
   375.689627253973        21.5603875897957     
   374.322350616082        8.71306608712334     
   370.737390532780        21.5052642415201     
   369.337972275911        8.66498840729126     
   365.772315430528        21.4803096968215     
   364.470913003620        8.74532533098480     
   360.835532514209        21.5234421970136     
   360.008817052992        9.20325886408500     
   356.355310836962        21.8989002801643     
   354.326289845836        8.60134941716631     
   350.796321724893        21.4244300968796     
   349.323680088114        8.57618459776282     
   345.800548265516        21.4311106056752     
   344.320256751794        8.57604136064003     
   340.802098239671        21.4321519353598     
   338.736169801290        7.94525957153884     
   335.221168409469        20.7944549766474     
   334.265013082734        8.31566888704648     
   330.751981341662        21.1700583829662     
   329.332971156316        8.51311295813309     
   325.828027417212        21.3752976645796     
   324.339235923992        8.56516442626290     
   320.842686436950        21.4234891894426     
   319.341918280145        8.57296793006506     
   315.851142552765        21.4300826876374     
   314.345224154280        8.57429575840423     
   310.859632587523        21.4328406329507     
   309.349733492491        8.57825826580429     
   305.870056125867        21.4443206270530     
   304.359999772871        8.59469894196102     
   300.888502858667        21.4868791398932     
   299.391868822027        8.64460198163052     
   295.923940975845        21.6052330999077     
   294.489822700038        8.75107510376894     
   290.893834560534        21.8465447345346     
   289.863597797286        8.87618843757675     
   285.795014994320        21.2052416328256     
   284.220899429207        8.51975636410465     
   280.900439993124        21.4153697647550     
   279.360131879241        8.57455454383946     
   275.935454883150        21.4688961497078     
   274.378316050222        8.61106967323155     
   270.971099866468        21.8343741083043     
   268.825780042243        8.07346450020625     
   266.400910460115        21.0649326235820     
   264.334802034775        8.48561550845666     
   260.638076850557        21.6201955048951     
   259.389615893613        8.84224616402902     
   256.042520984167        21.4955861704410     
   254.425219030914        9.21462784307019     
   251.308582552000        21.3965322681770     
   249.475210760346        8.29281056166184     
   246.581149429700        21.6335465380135     
   244.432425421244        8.67419937476460     
   240.320546959715        21.3739929569070     
   239.337062622853        8.65221808895377     
   235.896347828935        21.3188791015669     
   234.401165300694        8.58062087564054     
   230.939645170302        21.3818925308167     
   229.509132885058        8.63769778165356     
   225.957573906863        21.4378171495655     
   224.874191554621        8.42163234387722     
   220.113172325639        20.7824053990373     
   219.510503388039        8.31903567565370     
   215.540417883546        21.1962539661983     
   214.525155536588        8.68958242119058     
   210.710374261555        21.3366920972094     
   208.012961645163        9.31423459401700     
   205.797928385463        21.3763995853707     
   203.517844588006        8.55118454496565     
   200.806704197861        21.3933337183260     
   198.815581347047        8.61019722422636     
   195.728127928881        21.4299237740386     
   194.111434449123        8.24109544969413     
   190.671611688993        21.6154852617079     
   189.385141471311        8.68454604578615     
   185.579230359546        21.6553796896053     
   184.286343968641        8.42933470265010     
   180.774051516731        22.3244829761710     
   179.420055873430        8.75426210398930     
   176.113281535708        21.3402955659371     
   175.085372049495        7.68078363908414     
   171.218002558255        21.4113254408734     
   170.885264647546        8.20301090504350     
   166.042691183069        21.9406796226757     
   164.218257949341        9.34487947946383     
   161.107056250554        22.1048157683006     
   159.321427114194        8.59543344665208     
   156.141989716010        21.2701876151489     
   154.448485004116        8.56521584238719     
   151.022793158723        21.5808547748288     
   149.457567369813        8.57350618973241     
   146.326113421521        21.2251163540729     
   144.387960912653        8.33262219349166     
   140.960119750400        22.0179144118792     
   138.495834650726        16.7956907973960     
   139.934532128494        7.36338305492817     
   134.927565456573        7.80209282431098     
   130.792183069590        8.55041736622428     
   117.302466696632        13.8986864655256     
   125.139396050855        7.70615977373989     
   119.898812408672        7.11281024233275     
   112.541855528795        11.2521723612785     
   113.888140623512        11.5166724781793     
   115.874588786314        12.0958125386435     
   115.261849760848        7.36538136778108     
   114.953367204208        11.5943777978520     
   110.396910152160        6.81877340229589     
   110.360840771135        11.1981120089949     
   111.348845795925        11.4140053994806     
   109.117644248768        10.3495656624973     
   107.144568980973        9.97016070136799     
   105.024336727856        7.54957391363503     
   105.218901060189        9.89982084593146     
   103.749949575369        9.31966544068832     
   102.642302292568        8.41902433970269     
   100.392682821584        8.02890734852311     
   97.8970556554012        7.57817229572239     
   96.1708718809825        8.06146954639362     
   94.8533096826460        7.19166490958015     
   43.6194839884890        8.32829920159450     
   41.2672677227806        11.7455462059769     
   39.2919515185068        8.26042932194565     
   37.1015727250444        13.0318073983733     
   34.8469408002768        8.35513371778100     
   32.9354717219678        16.2073098884585     
   30.2408497694895        8.52475392437295     
   28.9752155769019        18.7768544986092     
   25.3732552857181        8.80790495898230     
   25.0279493412936        20.9725173437477     
   20.2714023678343        8.85137782189795     
   15.3454518623241        8.58310545793248     
   8.52280132174765        12.7704975692155     
   10.7972215172971        8.37333904097093     
   6.94625949696442        8.30645933161532     
   3.49552748645543        29.3668255306614     
   6.66511649191737        31.9961706431928     
   3.81904228414856        25.0253142473443     
   11.0569732944053        30.8123927573376     
   4.02215603811111        20.4151386495964     
   15.6329176800693        29.3980116436564     
   20.2122387824773        27.7545708289593     
   117.806221890645        16.3871457145067     
   118.563452676681        18.3037059184705     
   119.297747389305        20.7630730780118     
   119.586806290775        23.3579290658423     
   122.222506803353        25.7618229211526     
   392.738462862345        26.0581125395709     
   396.746341479693        26.7670335921530     
   395.981092986099        22.7804347448447     
   387.817668288890        25.7536221297073     
   395.550308651231        17.8097072505496     
   396.209396285774        3.79768505608613     
   392.478278294165        4.25392341854837     
   395.764851813737        7.53880736478925     
   387.454520492216        4.57585048346369     
   395.460689005997        12.5699662556300     
   382.800273638216        25.7969114319993     
   382.258951242841        4.48551455096424     
   377.846046219590        25.7895244415931     
   377.184834010623        4.39606026285564     
   372.884277004130        25.7648483412452     
   372.163935706904        4.35014712569931     
   367.907417843071        25.7496428746124     
   367.156505074687        4.37116604949868     
   362.909865743639        25.7779062925567     
   362.034714937715        4.55247817671838     
   357.791391594199        25.9541715975349     
   357.050169054303        4.09839559731683     
   352.850466267559        25.5361626585045     
   352.160604633660        4.28568623279481     
   347.955583898748        25.7127180429689     
   347.165414915844        4.29094438199815     
   342.965918289381        25.7177395705738     
   342.261980366103        4.46451030964148     
   337.944833346325        25.8312773415371     
   337.308921745274        4.01573079464767     
   332.896678335988        25.1159082756076     
   332.182160211589        4.21187964924947     
   327.980099507046        25.5930016616851     
   327.171248626573        4.27420078602817     
   323.005798794711        25.6974674232766     
   322.171002168685        4.28568819370384     
   318.017198891735        25.7135736003407     
   317.172411488113        4.28702553509576     
   313.027156643718        25.7156539260702     
   312.174374575246        4.28799390794383     
   308.037646305090        25.7189771324984     
   307.178382435157        4.29245630522850     
   303.051632558640        25.7333223593885     
   302.192030684035        4.30894878989911     
   298.081710568186        25.7828448361582     
   297.242474588769        4.35611014078395     
   293.185942044381        25.9289705615922     
   292.418323608257        4.47860963843809     
   288.762081030579        26.3960127488576     
   287.948145349520        4.91942378550800     
   283.100511083427        25.7146300277390     
   282.209639933498        4.29555535376611     
   278.112238310751        25.7240885914446     
   277.198839379476        4.30790686705536     
   273.334277405003        25.8893385866804     
   272.344171437514        4.56974664236277     
   267.578700384502        26.1722907359507     
   267.349843189888        4.10034859366037     
   263.015315994206        25.5759526011412     
   262.206935217570        4.37762036033609     
   258.194973138826        25.9895702295634     
   257.195218966583        4.85189838456213     
   253.688247551166        25.4502676390019     
   252.218945965749        4.01383983727561     
   249.171969251269        25.3314489509549     
   247.209884121333        4.23699590104306     
   242.407068826143        24.8779179902714     
   242.195480881032        4.30272024166196     
   239.020189952083        26.7553472629393     
   237.196763780352        4.29427807787729     
   233.222732689513        25.7587469949592     
   232.213559822785        4.30756951544664     
   228.209624063648        25.7510812170992     
   227.321303982604        4.42543548770484     
   223.396651292423        26.0630922493394     
   222.916039445030        3.26223376052435     
   218.255053856067        25.4733810990857     
   217.689736918623        4.30851891234432     
   213.099377962503        25.6104106519222     
   212.384298802493        4.24151039132687     
   208.123993359332        25.6688852620025     
   207.597247375702        4.26477925379557     
   203.144726091220        25.6917199098556     
   202.284752395688        5.41770878779907     
   198.133800046461        25.7115344338394     
   196.981000609231        5.79678884523204     
   193.106862021810        25.7608895769045     
   192.071984770725        4.21064628043116     
   188.081052225325        25.8257585279075     
   186.171299797353        3.51456601558824     
   183.093588877109        25.9491681938199     
   182.497935577016        3.86792315614168     
   178.092420383581        25.9238653465515     
   177.672475547017        4.23088132255171     
   173.764347052961        26.6168405964159     
   172.814253190081        4.17465848993270     
   168.513537956054        26.4054367101784     
   168.296469002637        4.90253718713391     
   163.395732713531        26.0262789421055     
   162.255249212649        4.40996659919622     
   158.950796536238        26.5150927710324     
   157.222997588155        4.31071208530902     
   153.299263039739        25.5791333795965     
   152.239306269583        4.29484086741075     
   148.266892519816        25.7515636881382     
   147.461849439454        4.27981944466379     
   143.306475459576        25.6466076413863     
   141.390907858379        3.26251593299250     
   138.875572407959        26.1050446769513     
   137.073463679739        3.85166216439174     
   133.340556504207        22.6128879547362     
   132.138257155421        4.27026335898725     
   117.018216926683        15.2204300422401     
   116.398386676145        14.0217861185618     
   127.515599029305        3.60047873149346     
   122.557237750954        4.36053105233512     
   113.035237474814        12.4946563882131     
   117.542004064067        4.39999221950851     
   114.119400632794        12.7726918708403     
   115.169495374391        12.8555063653713     
   112.617134598200        4.80943420338270     
   111.837345485587        12.4893544795982     
   110.627739896189        12.4131198418469     
   109.339413915340        12.1448002711786     
   107.817048970495        11.8394761947518     
   107.682594967257        5.14953279733579     
   106.106314641125        11.6607690594031     
   104.371147621051        11.5740288561560     
   102.334831571884        10.7023059600243     
   103.401045289966        4.57602664763356     
   100.739896486343        10.1931541492808     
   98.9467783415144        10.2161542988714     
   97.1324348057663        10.3052876199273     
   96.8621302536499        4.89228207190540     
   95.4964161997812        9.71878603860342     
   92.4159268756383        8.69441390259419     
   92.2656138406200        4.64443276713650     
   89.1553543746329        8.06658751823929     
   86.6866120756467        7.59468070326489     
   87.2742600934586        4.20157636886043     
   84.2052233035051        6.40781418746811     
   83.4448047327956        3.07036717844676     
   80.9036867047881        5.17458537635147     
   77.0565192688922        4.27863009772939     
   72.7758496981222        4.10619534826820     
   68.2285889425632        4.27536529231096     
   62.9361736750023        4.99651598567051     
   59.5180451233743        7.64644345230526     
   57.5801216907133        4.28190837523739     
   55.5018022194730        8.51263498267507     
   52.7093088751172        4.37971412574508     
   49.9971713741352        10.3119318019226     
   47.5736669462632        4.73825294127711     
   44.9379862354565        13.0582554455259     
   41.6638792955729        3.95200382174512     
   41.3476652908656        16.0466109464934     
   37.2190797185991        4.13469297629445     
   37.2818252756726        18.6574425115066     
   32.4916560330097        4.22611626036539     
   33.1470528699039        21.3449174224944     
   27.6285070928155        4.32674369727499     
   28.9827409235487        23.7754278720367     
   22.6593069851339        4.39053410583190     
   24.6861926555770        25.8989988403063     
   17.6837428390988        4.35118243624091     
   4.10723136673817        15.6092970201558     
   12.8310101369158        4.27997823446516     
   3.83216471390953        10.7432533219081     
   8.16505119485211        4.37225412098014     
   3.42017474119081        5.27448259332735     
   115.822140628695        13.2318373232332     
  0.000000000000000E+000  0.000000000000000E+000
  0.000000000000000E+000   36.0000000000000     
   400.000000000000        30.0000000000000     
   400.000000000000       0.000000000000000E+000
  0.000000000000000E+000   4.50000000000000     
  0.000000000000000E+000   9.00000000000000     
  0.000000000000000E+000   13.5000000000000     
  0.000000000000000E+000   18.0000000000000     
  0.000000000000000E+000   22.5000000000000     
  0.000000000000000E+000   27.0000000000000     