 TITLE = "Edge Error"
 VARIABLES = "X", "Y","Estimate1" 
 ZONE T = "Domain", I=       13281  DATAPACKING=POINT, ZONETYPE=ORDERED
   115.652825000000        13.7382300000000        902.843449616095     
   115.652200000000        13.8039414000000        94923.3712871728     
   115.653495500000        13.8039414000000        88815.7562945128     
   115.652870500000        13.8696528000000        301.508813979489     
   115.654075000000        13.7382300000000        844.751966583979     
   115.654791000000        13.8039414000000        81054.5043527983     
   115.654211500000        13.8696528000000        285.051646729883     
   115.653586500000        13.9353642000000        27712.1682073868     
   115.654973000000        13.9353642000000        27936.1084864695     
   115.654348000000        14.0010756000000        301.955333166364     
   115.652200000000        13.9353642000000        54870.6822479702     
   115.652916000000        14.0010756000000        597.878122970672     
   115.655325000000        13.7382300000000        770.931933329148     
   115.656086500000        13.8039414000000        66875.3451797194     
   115.655552500000        13.8696528000000        285.051646729883     
   115.656575000000        13.7382300000000        636.069244601681     
   115.657382000000        13.8039414000000        62532.1654771262     
   115.656893500000        13.8696528000000        256.536052971377     
   115.656359500000        13.9353642000000        25141.5056841203     
   115.657745500000        13.9353642000000        24998.1130149411     
   115.657211500000        14.0010756000000        18.4478831321553     
   115.655780000000        14.0010756000000        18.4607747347743     
   115.655155000000        14.0667870000000        4444.16725724775     
   115.656632000000        14.0667870000000        7742.77487841876     
   115.656007000000        14.1324984000000        89.6684450922448     
   115.658109000000        14.0667870000000        4937.65155666084     
   115.657529500000        14.1324984000000        89.7273599714435     
   115.656904500000        14.1982097500000        7742.76910910108     
   115.658473000000        14.1982097500000        4937.64779961590     
   115.657848000000        14.2639211000000        23.9052093895224     
   115.655336500000        14.1982097500000        4444.16382897327     
   115.656234000000        14.2639211000000        34.4510766275964     
   115.652200000000        14.0667870000000        54870.6822479702     
   115.653677500000        14.0667870000000        27712.1682073868     
   115.652961500000        14.1324984000000        174.087727993162     
   115.654484500000        14.1324984000000        97.4350594441127     
   115.653768500000        14.1982097500000        8407.86714147583     
   115.654620500000        14.2639211000000        70.9696977529044     
   115.652200000000        14.1982097500000        15022.3763950346     
   115.653007000000        14.2639211000000        96.0760965669236     
   115.660268500000        14.2639211000000        29.1440463777756     
   115.659814000000        14.1324984000000        114.440028323964     
   115.661609500000        14.1982097500000        2118.32808493782     
   115.659359000000        14.0010756000000        20.2313970972872     
   115.661064000000        14.0667870000000        2118.32976365551     
   115.662859500000        14.1324984000000        49.0802087951906     
   115.662223000000        14.0010756000000        5.01114971643837     
   115.664018500000        14.0667870000000        381.699857472802     
   115.663495500000        14.2639211000000        12.4187915889315     
   115.664745500000        14.1982097500000        381.699567045132     
   115.658905000000        13.8696528000000        511.783658044741     
   115.660518500000        13.9353642000000        25078.5308224430     
   115.658450000000        13.7382300000000        1189.51821204469     
   115.659973000000        13.8039414000000        60067.6503797330     
   115.661586500000        13.8696528000000        511.651190859069     
   115.660950000000        13.7382300000000        1151.04087183563     
   115.662563500000        13.8039414000000        60510.1315129658     
   115.663291000000        13.9353642000000        25081.5605285013     
   115.661177500000        14.5267667000000        16.6696648323084     
   115.659745500000        14.6581895000000        9564.49828007003     
   115.663510500000        14.6562149000000        1004.49665558472     
   115.662078500000        14.7876377000000        202.965909587412     
   115.664768500000        14.5267667000000        4.36776741438900     
   115.667291500000        14.6581895000000        361.731571858514     
   115.666033500000        14.7876377000000        21.7290898393502     
   115.664064000000        14.7896123000000        287.830163456903     
   115.659200000000        14.4610553000000        610.075864717919     
   115.660723000000        14.3953439000000        1.53354970804317     
   115.662700500000        14.4610553000000        159.852174620188     
   115.658836500000        14.3296325000000        1186.92494225824     
   115.662155000000        14.3296325000000        505.772063341928     
   115.664132500000        14.3953439000000       0.205202862522514     
   115.665473000000        14.3296325000000        90.7074555129547     
   115.666200500000        14.4610553000000        40.1597579845805     
   115.652200000000        14.3296325000000        7823.16581404446     
   115.653859500000        14.3296325000000        5782.41700540527     
   115.653052500000        14.3953439000000        45.0630949489316     
   115.655518000000        14.3296325000000        2805.24243801227     
   115.654757000000        14.3953439000000        45.0366649812864     
   115.653950500000        14.4610553000000        7309.47325912168     
   115.655700000000        14.4610553000000        13676.4436526746     
   115.654893500000        14.5267667000000        186.795539406190     
   115.652200000000        14.4610553000000        3330.48460929520     
   115.653098000000        14.5267667000000        99.8899036272846     
   115.657177500000        14.3296325000000        1946.52808600606     
   115.656461500000        14.3953439000000        27.6048575064716     
   115.658166000000        14.3953439000000        5.09834964922900     
   115.657450500000        14.4610553000000        5846.60809342950     
   115.658484500000        14.5267667000000        79.8540198908563     
   115.656689000000        14.5267667000000        186.899603776243     
   115.655973000000        14.6581895000000        37195.5372539959     
   115.657857500000        14.6572015000000        33105.9701831191     
   115.657141500000        14.7886243000000        395.149984698149     
   115.659118500000        14.7886243000000        355.085806107371     
   115.658132000000        14.7896123000000        559.533860475067     
   115.652200000000        14.6581895000000        22286.4269666454     
   115.654086000000        14.6572015000000        34403.0764124246     
   115.653188000000        14.7886243000000        368.532372035947     
   115.655165500000        14.7886243000000        395.750364170151     
   115.654177500000        14.7896123000000        559.675371314485     
   115.652200000000        15.1201957000000        56059.7004514082     
   115.656609000000        15.1177644000000        92874.2473749668     
   115.654631500000        15.4483478000000        369.435257716020     
   115.661024000000        15.1201959000000        24058.7347909139     
   115.659501000000        15.4483480000000        369.944597479208     
   115.657069500000        15.4507793000000        165.400122703115     
   115.669848500000        15.1201959000000        909.906989661659     
   115.666808500000        15.4507795000000        73.9641337156136     
   115.662854000000        15.7813630500000        5021.34090887684     
   115.673507500000        15.7813630500000        289.266134391926     
   115.669553000000        16.1119466000000       0.463241955657068     
   115.652200000000        15.7813628500000        11228.7899717586     
   115.657984500000        16.1119466000000       0.489256952792408     
   115.652200000000        16.5280114000000        35.1910443792950     
   115.664920000000        16.5280113500000        33.3228537306541     
   115.659135500000        16.9440761500000       0.366396746593127     
   115.677640000000        16.5280113500000        30.0335174892833     
   115.673007000000        16.9440761000000       0.354594078470424     
   115.667222500000        17.3601408500000        23.7214794653569     
   115.682245500000        17.3601408500000        23.6015965530972     
   115.676461000000        17.7762056000000       0.461069748756003     
   115.652200000000        17.3601409000000        24.1287612469871     
   115.660287000000        17.7762056000000       0.468987857428097     
   115.652200000000        18.2998480000000        38.1242720141473     
   115.669823000000        18.2998479500000        37.6959066244883     
   115.661736000000        18.8234903500000       0.694277350214702     
   115.687446000000        18.2998479500000        37.5706846279584     
   115.680808000000        18.8234903000000       0.686473867760693     
   115.672721000000        19.3471326000000        50.6904412767194     
   115.693242000000        19.3471326000000        50.5850935187759     
   115.685155000000        19.8707749000000        1.06338308718265     
   115.652200000000        19.3471326500000        51.0923290481260     
   115.663185000000        19.8707749000000        1.07181808685973     
   115.652200000000        20.5298210500000        87.0829679229691     
   115.675994000000        20.5298211500000        86.6080641317472     
   115.665009000000        21.1888673000000        1.69251536657892     
   115.699787500000        20.5298211500000        86.5081583674318     
   115.690626500000        21.1888674000000        1.68321288660547     
   115.679641500000        21.8479136000000        121.646060981650     
   115.707082500000        21.8479136000000        121.473371285150     
   115.696097500000        22.5069598000000        2.70084126714233     
   115.652200000000        21.8479135000000        122.114427668875     
   115.666832500000        22.5069598000000        2.71125012440763     
   115.652200000000        23.3363928000000        197.056197086090     
   115.683760500000        23.3363927000000        195.974972950925     
   115.669128000000        24.1658257000000        4.02174413645411     
   115.715320500000        23.3363927000000        195.564160094792     
   115.702983500000        24.1658256000000        3.99954432752819     
   115.688351000000        24.9952585000000        208.858660372311     
   115.724501500000        24.9952585000000        208.156732206346     
   115.709869000000        25.8246914000000        4.84050567489213     
   115.652200000000        24.9952586000000        210.773070127718     
   115.671423000000        25.8246914000000        4.88489329945226     
   115.652200000000        27.3904321000000        107.721620158691     
   115.674311500000        27.9123457000000        2.94921451517516     
   115.672867000000        26.8685185000000        4.26561546551001     
   115.694978500000        27.3904321000000        106.014706937032     
   115.652200000000        26.3466049500000        132.627165545849     
   115.692090000000        26.3466049500000        131.422523533986     
   115.718534500000        27.9123457000000        2.85015520942978     
   115.714201500000        26.8685185000000        4.19810973260319     
   115.737757500000        27.3904321000000        105.686977111232     
   115.731980500000        26.3466049500000        130.980841276502     
   115.700755500000        29.4780864000000        34.3507672586819     
   115.727200000000        30.0000000000000        1.20151846966669     
   115.722867000000        28.9561728000000        1.55037840437580     
   115.749311500000        29.4780864000000        33.1424412978888     
   115.697867000000        28.4342592500000        67.2018054139984     
   115.743534500000        28.4342592500000        67.2752823125670     
   115.652200000000        29.4780864000000        38.9129224498473     
   115.677200000000        30.0000000000000        1.48395614407405     
   115.675755500000        28.9561728000000        1.75625495248140     
   115.652200000000        28.4342592500000        69.6124196606524     
   115.666916500000        14.2639111000000        2.49505747258486     
   115.666087500000        14.1324889500000        9.90679151308567     
   115.668258500000        14.1981903000000        225.602425348932     
   115.665258500000        14.0010667000000        8.17106293120678     
   115.667327500000        14.0667686500000        334.850447513960     
   115.669498500000        14.1324700500000        5.85537215352351     
   115.668465500000        14.0010489500000        8.17106152109187     
   115.670636500000        14.0667503500000        308.343848338869     
   115.670531500000        14.2638911000000        1.52813878844253     
   115.671771500000        14.1981708500000        134.021714067714     
   115.664429000000        13.8696445000000        574.658816170738     
   115.666396500000        13.9353470000000        25140.9197650393     
   115.663600000000        13.7382222500000        1312.11858180937     
   115.665465500000        13.8039253500000        61586.6211777230     
   115.667433000000        13.8696278500000        576.541386403817     
   115.666400000000        13.7382067500000        1402.18296556506     
   115.668367500000        13.8039092500000        65814.1553907107     
   115.669502000000        13.9353298000000        25223.3903991434     
   115.674146000000        14.2638711000000       0.932398524339271     
   115.672909500000        14.1324511500000        3.47843780958237     
   115.675284000000        14.1981514000000        64.0572407775792     
   115.671673000000        14.0010312000000        7.52656856448127     
   115.673946000000        14.0667320000000        301.309063323636     
   115.676320500000        14.1324322500000        5.23796714928456     
   115.674880500000        14.0010134500000        8.04002680713345     
   115.677255000000        14.0667137000000        329.486276721712     
   115.677760500000        14.2638511000000        1.81343344768090     
   115.678797000000        14.1981319500000        201.818104571632     
   115.670436500000        13.8696112000000        577.354428109446     
   115.672607500000        13.9353126000000        25267.5163142334     
   115.669200000000        13.7381912500000        1402.18296556506     
   115.671269000000        13.8038932000000        59565.6282412994     
   115.673440000000        13.8695946000000        577.900371319139     
   115.672000000000        13.7381757500000        1269.04909794635     
   115.674171000000        13.8038771500000        58294.1016984971     
   115.675713000000        13.9352954500000        25283.2065823379     
   115.676619000000        14.5267110500000       0.535875038321489     
   115.675742500000        14.6581427500000        36.8224065794008     
   115.679945500000        14.6559082500000        51.4124055106980     
   115.679069000000        14.7873399500000        1.24226977955058     
   115.680641000000        14.5266888000000       0.415660785519060     
   115.684194000000        14.6580959500000        59.8460615853734     
   115.683498500000        14.7873154000000        1.42847431229002     
   115.681306500000        14.7895387500000        2.01702544934738     
   115.674040500000        14.4610119500000        17.5103205696883     
   115.675382000000        14.3952911000000       0.898126003281713     
   115.677960500000        14.4609902000000        30.9155283274519     
   115.672906000000        14.3295914000000        33.9067677929352     
   115.676622000000        14.3295708000000        30.9155259317596     
   115.679200500000        14.3952699500000        2.11073460212912     
   115.680339000000        14.3295502500000        72.6378668302367     
   115.681881000000        14.4609685500000        72.6378668302367     
   115.668575000000        14.5267556000000        1.22902978626809     
   115.671501500000        14.6559550000000        71.7819175853628     
   115.670218000000        14.7873889000000        8.60713628597744     
   115.672597000000        14.5267333500000        1.10764613516132     
   115.674647000000        14.7873644000000        1.73979441222376     
   115.672448000000        14.7895878000000        12.1904958474669     
   115.667746000000        14.3953333500000       0.229825900026124     
   115.670120500000        14.4610336500000        36.1934741763855     
   115.669189500000        14.3296119500000        55.5553424655073     
   115.671564000000        14.3953122500000       0.207373109848746     
   115.679731500000        15.1201412000000        92.6238254233322     
   115.677132000000        15.4507493000000        4.77234128485873     
   115.689614500000        15.1200864500000        150.538049591342     
   115.688039500000        15.4506889000000        1.30665058587069     
   115.685440000000        15.7812970000000        64.4248051292008     
   115.697372000000        15.7812309500000        79.2088635035840     
   115.694772500000        16.1118390500000       0.467967445139127     
   115.681815500000        16.1119107500000       0.467648704752593     
   115.691886000000        16.5279325000000        29.4405968182753     
   115.687710500000        16.9440331000000       0.393488658181017     
   115.706132500000        16.5278537000000        30.0545665229745     
   115.703246000000        16.9439471500000       0.393649292470728     
   115.699070500000        17.3600477500000        23.6529147806029     
   115.715895500000        17.3599546500000        23.6771798068131     
   115.711720000000        17.7760552500000       0.515400826491907     
   115.693605500000        17.7761555000000       0.514908371218578     
   115.707184000000        18.2997387000000        37.6103504941074     
   115.701024500000        18.8234311500000       0.767118013872562     
   115.726921000000        18.2996294500000        37.6262980054750     
   115.722385000000        18.8233129000000       0.767396235521464     
   115.716225500000        19.3470053500000        50.5990237735121     
   115.739209000000        19.3468781500000        50.5955251007633     
   115.733049500000        19.8705706000000        1.18886894361536     
   115.708443000000        19.8707068000000        1.18882063083845     
   115.726436000000        20.5296736500000        86.5620928278372     
   115.717780500000        21.1887880000000        1.88419330718195     
   115.753085500000        20.5295261500000        86.5708415136340     
   115.746472000000        21.1886292000000        1.88442225482715     
   115.737816000000        21.8477435000000        121.509108081144     
   115.768550500000        21.8475734000000        121.493271797443     
   115.759894500000        22.5066877000000        3.02155211589397     
   115.727118000000        22.5068691000000        3.02145993358306     
   115.750667500000        23.3361970500000        195.572077423485     
   115.738870000000        24.1657206500000        4.47032342115977     
   115.786014500000        23.3360014500000        195.528727713835     
   115.776787500000        24.1655108000000        4.47020546503085     
   115.764990000000        24.9950344000000        208.025239597468     
   115.805478000000        24.9948103000000        207.889933489041     
   115.793680500000        25.8243339000000        5.39966258553720     
   115.750621500000        25.8245722500000        5.40310175801807     
   115.765410500000        27.9122086500000        3.19222597670046     
   115.758016000000        26.8683904000000        4.68724412595738     
   115.785669000000        27.3901669500000        105.447901542675     
   115.776657000000        26.3463577000000        130.898097023813     
   115.814939500000        27.9119345000000        3.19900307381982     
   115.804310000000        26.8681342000000        4.67661858747078     
   115.833580500000        27.3899017500000        105.328501697411     
   115.821333500000        26.3461104000000        130.812980593811     
   115.803693000000        29.4780179000000        33.5252337360781     
   115.836198500000        29.9996900500000        1.20708413249240     
   115.825569000000        28.9558123000000        1.71291791575181     
   115.858074500000        29.4774844500000        33.8865082930949     
   115.794681000000        28.4340537000000        67.2866961445879     
   115.845827500000        28.4336931000000        67.4205124158431     
   115.780199500000        30.0000000000000        1.20701018041767     
   115.772805000000        28.9561043000000        1.69437370470033     
   115.681592000000        14.2638173500000        2.03075286543423     
   115.679936000000        14.1324004000000        5.86634515302293     
   115.682731000000        14.1980858000000        167.762402788677     
   115.678280000000        14.0009835000000        11.0125382524675     
   115.680961000000        14.0666702000000        402.909440365177     
   115.683756000000        14.1323556000000        5.23775895835818     
   115.681872000000        14.0009413500000        15.1898494830735     
   115.684667000000        14.0666267500000        555.744923858109     
   115.685640000000        14.2637698500000        1.75870292007478     
   115.686665000000        14.1980396500000        180.194059991984     
   115.676624000000        13.8695665500000        649.184212227726     
   115.679191000000        13.9352546000000        25361.1145737544     
   115.674968000000        13.7381496000000        1391.05669021665     
   115.677421000000        13.8038390000000        57637.7520179919     
   115.679988000000        13.8695271000000        649.803960231615     
   115.678103500000        13.7381128000000        1382.80689713507     
   115.680670500000        13.8038009000000        57967.2427338680     
   115.682669000000        13.9352138500000        25385.4444089352     
   115.689688000000        14.2637223500000        6.40629836652400     
   115.687576000000        14.1323108000000        16.3317251699027     
   115.690599000000        14.1979935000000        561.862712395362     
   115.685464000000        14.0008992000000        19.1236691633371     
   115.688373000000        14.0665832500000        699.675441764217     
   115.691396000000        14.1322660000000        16.3317251699027     
   115.689056000000        14.0008570500000        19.1236629169194     
   115.692079000000        14.0665398000000        697.793786298346     
   115.693736000000        14.2636748500000        9.50345139918910     
   115.694533000000        14.1979473500000        524.053216673902     
   115.683351500000        13.8694876500000        650.449072021992     
   115.686146500000        13.9351730000000        25418.3823463351     
   115.681239000000        13.7380760000000        1418.12102289896     
   115.683920000000        13.8037627500000        59429.0855317252     
   115.686715000000        13.8694481500000        654.381928265384     
   115.684375000000        13.7380392000000        1618.16630674458     
   115.687170000000        13.8037246000000        67813.0690127180     
   115.689624500000        13.9351322000000        25564.7549511181     
   115.693912500000        14.5265455500000       0.596259838977011     
   115.693658500000        14.6579849000000        44.5809527922266     
   115.698349000000        14.6554536500000        34.1328399120622     
   115.698095000000        14.7868930000000        1.18565634211638     
   115.698417000000        14.5264927000000       0.921578599759452     
   115.703123000000        14.6578738500000        53.7811630072285     
   115.703055000000        14.7868348000000       0.836730891934854     
   115.700617000000        14.7893396000000        1.68256830390964     
   115.690661000000        14.4608655500000        81.5260708125440     
   115.691800000000        14.3951340000000        2.65262553098364     
   115.695051500000        14.4608140000000        17.3941117232022     
   115.688663000000        14.3294526000000        81.5261328363106     
   115.692825000000        14.3294037500000        207.983300932059     
   115.696076000000        14.3950838000000        1.96982174678937     
   115.696987000000        14.3293549000000        308.536931761495     
   115.699441500000        14.4607625000000        60.5418329938460     
   115.684904000000        14.5266512500000       0.376646794599689     
   115.688892500000        14.6555645500000        40.5731992902284     
   115.688182500000        14.7870092500000        1.59440136982763     
   115.689408000000        14.5265984000000       0.406857792170229     
   115.693143000000        14.7869510500000        1.18996277963958     
   115.690696500000        14.7894560000000        2.25894337781727     
   115.683248000000        14.3952343000000        3.34048297028066     
   115.686271000000        14.4609170000000        102.666309183285     
   115.684501000000        14.3295014000000        102.666309183285     
   115.687524000000        14.3951841500000        3.34048205418725     
   115.700683000000        15.1199566000000        112.139870082040     
   115.699601000000        15.4505870500000        1.46354607016924     
   115.711751000000        15.1198267500000        78.7269744476531     
   115.711817000000        15.4504437500000        1.33402561080582     
   115.710735000000        15.7810742000000        72.1994979524133     
   115.724098500000        15.7809174000000        65.5822091269368     
   115.723016500000        16.1115478500000       0.547231111492678     
   115.708506000000        16.1117181000000       0.534762618316697     
   115.722087000000        16.5276665000000        30.6670676974504     
   115.719713500000        16.9438021000000       0.441278096896531     
   115.738042000000        16.5274793000000        31.3805046477460     
   115.737112500000        16.9435979500000       0.441381710647466     
   115.734738500000        17.3597335500000        23.7041624858758     
   115.753582000000        17.3595124500000        23.7073443743432     
   115.751208000000        17.7756480500000       0.578010478633613     
   115.730920500000        17.7758861000000       0.577914759716050     
   115.749025500000        18.2993701000000        37.6466306413594     
   115.745026000000        18.8231134500000       0.859945988624710     
   115.771131000000        18.2991107000000        37.6469694388176     
   115.768948500000        18.8228327500000       0.859981931589967     
   115.764948500000        19.3465761500000        50.5925574219910     
   115.790689000000        19.3462741000000        50.5720022953967     
   115.786689000000        19.8700175000000        1.33131820261805     
   115.759131500000        19.8703408500000        1.33135601863010     
   115.782930000000        20.5291760000000        86.5640100093440     
   115.776884000000        21.1883613000000        2.11046619191526     
   115.812775500000        20.5288257500000        86.5341290854402     
   115.809016500000        21.1879842500000        2.11035271376432     
   115.802970000000        21.8471695500000        121.461453574139     
   115.837390500000        21.8467656500000        121.396455928061     
   115.831344000000        22.5059509500000        3.38271667428057     
   115.794636500000        22.5063816500000        3.38353098264509     
   115.825601000000        23.3355369500000        195.508803997120     
   115.816979000000        24.1651567500000        5.00559349912104     
   115.865187500000        23.3350725000000        195.572068150947     
   115.859444500000        24.1646585000000        5.00646430571898     
   115.850822500000        24.9942782500000        207.811113893864     
   115.896166500000        24.9937462500000        208.065560727433     
   115.887544500000        25.8233660000000        6.04849915676687     
   115.839321500000        25.8239318000000        6.04353930163707     
   115.867438500000        27.9114720000000        3.59180754362300     
   115.853380000000        26.8677019500000        5.23175607582267     
   115.887238000000        27.3892722000000        105.291795963973     
   115.871368000000        26.3455233500000        130.763381376745     
   115.922908000000        27.9108211500000        3.61755883628828     
   115.905226500000        26.8670936000000        5.24702346695972     
   115.940896500000        27.3886425500000        105.636380568564     
   115.921403000000        26.3449362500000        130.923483848962     
   115.918982000000        29.4777866500000        34.4579205770454     
   115.958274000000        29.9989542000000        1.41954448447068     
   115.940591000000        28.9548877000000        2.03348956169705     
   115.979883000000        29.4760552500000        35.9141095525899     
   115.903109500000        28.4333599500000        67.6333574918453     
   115.960389500000        28.4323489000000        68.0740545429466     
   115.895558000000        29.9996900500000        1.35281416964439     
   115.881498500000        28.9555810500000        1.94944824017499     