TITLE = "Visualization of the solution"
VARIABLES = "x","y","Density","Momentum_x","Momentum_y","Energy","Pressure","Temperature","Pressure_Coefficient","Mach"
ZONE NODES= 7696, ELEMENTS= 14269, DATAPACKING=POINT, ZONETYPE=FEQUADRILATERAL
1.156522e+02	1.373823e+01	2.378494e+00	1.246705e+03	5.462966e+01	3.027814e+06	5.337904e+04	4.436434e+02	-2.217211e+18	3.487783e+00	
1.156522e+02	1.478961e+01	1.253339e-03	1.173803e+00	-5.827935e-01	6.867134e+02	3.094164e-02	4.859312e-01	-2.370992e+18	2.091553e+02	
1.156522e+02	1.611195e+01	1.619123e-04	2.386491e-05	-4.120453e-02	1.935050e+02	3.765236e+00	4.541955e+02	-2.370981e+18	1.652377e+00	
1.156522e+02	1.777621e+01	2.718893e-04	-1.028820e-04	-7.309788e-02	2.955880e+02	5.715227e+00	4.105557e+02	-2.370975e+18	1.836084e+00	
1.156522e+02	1.987077e+01	4.575722e-04	-3.018386e-04	-1.118707e-01	4.985072e+02	9.696608e+00	4.138962e+02	-2.370964e+18	1.662948e+00	
1.156522e+02	2.250696e+01	7.951281e-04	-7.719444e-05	-1.614822e-01	8.540755e+02	1.675349e+01	4.115286e+02	-2.370943e+18	1.385334e+00	
1.156522e+02	2.582469e+01	1.579408e-03	4.732767e-04	-1.946048e-01	1.667495e+03	3.310984e+01	4.094459e+02	-2.370896e+18	8.426181e-01	
1.156522e+02	3.000000e+01	2.527634e-03	-3.500536e-03	-6.019622e-03	2.650842e+03	5.301592e+01	4.096644e+02	-2.370839e+18	1.883505e-02	
1.156622e+02	1.373823e+01	2.702535e+00	1.282426e+03	9.972422e+01	3.397736e+06	6.102145e+04	4.470259e+02	-2.195194e+18	3.156729e+00	
1.156680e+02	1.478961e+01	1.439481e-03	1.426977e+00	-6.844771e-01	1.821648e+03	1.903216e+01	2.582369e+02	-2.370937e+18	9.467605e+00	
1.156753e+02	1.611195e+01	1.676514e-04	6.326456e-04	-4.270111e-02	1.951747e+02	3.794707e+00	4.420806e+02	-2.370981e+18	1.676464e+00	
1.156845e+02	1.777621e+01	2.728954e-04	-5.193201e-04	-7.316753e-02	2.964874e+02	5.733556e+00	4.103538e+02	-2.370975e+18	1.831553e+00	
1.156961e+02	1.987077e+01	4.610320e-04	-2.133940e-03	-1.140802e-01	4.965324e+02	9.648240e+00	4.087410e+02	-2.370964e+18	1.693937e+00	
1.157107e+02	2.250696e+01	7.966174e-04	-3.690054e-04	-1.656895e-01	8.386757e+02	1.642882e+01	4.027992e+02	-2.370944e+18	1.434065e+00	
1.157291e+02	2.582469e+01	1.583522e-03	2.887948e-03	-2.127067e-01	1.636331e+03	3.244057e+01	4.001274e+02	-2.370898e+18	9.293230e-01	
1.157522e+02	3.000000e+01	2.637561e-03	-3.906361e-02	-6.648387e-03	2.688049e+03	5.375422e+01	3.980584e+02	-2.370837e+18	1.042002e-01	
1.156734e+02	1.373817e+01	2.768054e+00	1.259818e+03	1.420339e+02	3.459174e+06	6.252624e+04	4.473496e+02	-2.190859e+18	3.037537e+00	
1.156857e+02	1.478951e+01	1.401351e-03	1.370555e+00	-6.739499e-01	2.210963e+03	2.757344e+01	3.843065e+02	-2.370912e+18	7.693176e+00	
1.157013e+02	1.611180e+01	1.731584e-04	1.479374e-03	-4.420101e-02	1.970944e+02	3.828930e+00	4.318812e+02	-2.370981e+18	1.700650e+00	
1.157208e+02	1.777601e+01	2.746735e-04	-8.440577e-04	-7.346118e-02	2.971675e+02	5.746844e+00	4.086424e+02	-2.370975e+18	1.830896e+00	
1.157454e+02	1.987050e+01	4.603267e-04	-3.022460e-03	-1.157015e-01	4.877184e+02	9.463333e+00	4.015219e+02	-2.370964e+18	1.736331e+00	
1.157763e+02	2.250660e+01	7.777679e-04	-2.701679e-05	-1.693798e-01	8.053311e+02	1.573768e+01	3.952053e+02	-2.370946e+18	1.515888e+00	
1.158152e+02	2.582421e+01	1.544289e-03	9.480516e-04	-2.379357e-01	1.573249e+03	3.109810e+01	3.933138e+02	-2.370902e+18	1.075062e+00	
1.158642e+02	2.999938e+01	2.664337e-03	-7.222768e-02	-5.400493e-03	2.668116e+03	5.334181e+01	3.910349e+02	-2.370838e+18	1.902344e-01	
1.156859e+02	1.373802e+01	2.859841e+00	1.303676e+03	1.873276e+02	3.584966e+06	6.472662e+04	4.484161e+02	-2.184520e+18	3.051914e+00	
1.157056e+02	1.478928e+01	1.192483e-03	1.226931e+00	-5.271770e-01	1.210576e+03	9.257007e+00	1.516205e+02	-2.370965e+18	1.258497e+01	
1.157303e+02	1.611146e+01	1.782698e-04	2.432099e-03	-4.607941e-02	2.000563e+02	3.881685e+00	4.252781e+02	-2.370981e+18	1.736849e+00	
1.157614e+02	1.777553e+01	2.782668e-04	-1.164656e-03	-7.494490e-02	2.976904e+02	5.751902e+00	4.037205e+02	-2.370975e+18	1.855062e+00	
1.158005e+02	1.986986e+01	4.564041e-04	-3.176546e-03	-1.189071e-01	4.749661e+02	9.189287e+00	3.932453e+02	-2.370965e+18	1.818644e+00	
1.158497e+02	2.250574e+01	7.470924e-04	5.818072e-04	-1.747756e-01	7.661843e+02	1.491474e+01	3.899182e+02	-2.370949e+18	1.639415e+00	
1.159117e+02	2.582308e+01	1.485080e-03	-6.360315e-03	-2.600693e-01	1.484746e+03	2.923896e+01	3.845440e+02	-2.370907e+18	1.236132e+00	
1.159896e+02	2.999791e+01	2.654927e-03	-1.066970e-01	-3.649789e-03	2.568529e+03	5.132683e+01	3.775974e+02	-2.370844e+18	2.863591e-01	
1.157000e+02	1.373776e+01	3.044968e+00	1.314469e+03	2.676188e+02	3.794635e+06	6.895544e+04	4.490733e+02	-2.172337e+18	2.919853e+00	
1.157278e+02	1.478887e+01	1.188741e-03	1.245145e+00	-4.945936e-01	8.983126e+02	2.865968e+00	4.709189e+01	-2.370983e+18	2.272842e+01	
1.157628e+02	1.611086e+01	1.823770e-04	3.037439e-03	-4.821369e-02	2.030418e+02	3.932868e+00	4.211820e+02	-2.370980e+18	1.786039e+00	
1.158068e+02	1.777468e+01	2.814014e-04	-1.352752e-03	-7.753350e-02	2.962364e+02	5.711029e+00	3.963865e+02	-2.370975e+18	1.915294e+00	
1.158622e+02	1.986870e+01	4.470535e-04	-2.597244e-03	-1.225543e-01	4.593951e+02	8.851759e+00	3.867242e+02	-2.370966e+18	1.929443e+00	
1.159319e+02	2.250420e+01	7.197951e-04	1.427369e-03	-1.783364e-01	7.296539e+02	1.415114e+01	3.839853e+02	-2.370951e+18	1.749664e+00	
1.160197e+02	2.582107e+01	1.438926e-03	-1.534992e-02	-2.638532e-01	1.398001e+03	2.747431e+01	3.729257e+02	-2.370913e+18	1.316180e+00	
1.161301e+02	2.999528e+01	1.976754e-03	-1.990589e-01	-2.539791e-03	1.829975e+03	3.639855e+01	3.596394e+02	-2.370887e+18	7.348542e-01	
1.157157e+02	1.373734e+01	3.328017e+00	1.410073e+03	3.541274e+02	4.184413e+06	7.611447e+04	4.540699e+02	-2.151713e+18	2.882774e+00	
1.157527e+02	1.478821e+01	1.219049e-03	1.302350e+00	-4.899940e-01	9.640257e+02	3.397338e+00	5.443471e+01	-2.370982e+18	2.140966e+01	
1.157992e+02	1.610989e+01	1.848187e-04	3.458962e-03	-4.960675e-02	2.041275e+02	3.948751e+00	4.172960e+02	-2.370980e+18	1.822599e+00	
1.158577e+02	1.777333e+01	2.825384e-04	-1.075045e-03	-7.964214e-02	2.938166e+02	5.651787e+00	3.906960e+02	-2.370975e+18	1.973563e+00	
1.159313e+02	1.986687e+01	4.387795e-04	-1.385883e-03	-1.240226e-01	4.466807e+02	8.582993e+00	3.820530e+02	-2.370967e+18	2.001179e+00	
1.160240e+02	2.250176e+01	7.088276e-04	3.117067e-03	-1.794682e-01	7.075067e+02	1.369554e+01	3.773727e+02	-2.370952e+18	1.803823e+00	
1.161406e+02	2.581787e+01	1.415701e-03	-1.793296e-02	-2.580327e-01	1.353046e+03	2.658811e+01	3.668174e+02	-2.370915e+18	1.320059e+00	
1.162874e+02	2.999112e+01	7.736471e-04	-1.912407e-01	-2.793640e-03	7.210551e+02	1.394819e+01	3.521336e+02	-2.370952e+18	1.823044e+00	
1.157333e+02	1.373672e+01	3.580938e+00	1.445915e+03	4.484515e+02	4.536759e+06	8.292698e+04	4.601983e+02	-2.132086e+18	2.773640e+00	
1.157805e+02	1.478723e+01	1.269304e-03	1.391816e+00	-4.913713e-01	1.057713e+03	3.990318e+00	6.140415e+01	-2.370980e+18	2.053592e+01	
1.158399e+02	1.610846e+01	1.860695e-04	3.880551e-03	-5.064962e-02	2.033592e+02	3.928499e+00	4.123651e+02	-2.370980e+18	1.860357e+00	
1.159146e+02	1.777133e+01	2.810937e-04	-6.215519e-04	-8.055486e-02	2.888064e+02	5.545255e+00	3.853018e+02	-2.370976e+18	2.020313e+00	
1.160087e+02	1.986415e+01	4.308800e-04	-5.604280e-05	-1.240551e-01	4.336278e+02	8.315366e+00	3.769261e+02	-2.370968e+18	2.052090e+00	
1.161271e+02	2.249814e+01	6.998394e-04	4.860896e-03	-1.792612e-01	6.873365e+02	1.328716e+01	3.708223e+02	-2.370953e+18	1.841329e+00	
1.162760e+02	2.581310e+01	1.375808e-03	-1.935789e-02	-2.472835e-01	1.302069e+03	2.559397e+01	3.633405e+02	-2.370918e+18	1.308808e+00	
1.164635e+02	2.998493e+01	5.063809e-04	-1.613645e-01	-5.543824e-03	4.756710e+02	8.998574e+00	3.470787e+02	-2.370966e+18	2.368314e+00	
1.157531e+02	1.373584e+01	3.666230e+00	1.412199e+03	5.045492e+02	4.673543e+06	8.586705e+04	4.654927e+02	-2.123616e+18	2.668686e+00	
1.158117e+02	1.478583e+01	1.373923e-03	1.555446e+00	-5.005212e-01	1.234517e+03	5.257145e+00	7.473782e+01	-2.370977e+18	1.903728e+01	
1.158855e+02	1.610641e+01	1.864565e-04	4.195491e-03	-5.140637e-02	2.011708e+02	3.880739e+00	4.065065e+02	-2.370981e+18	1.898509e+00	
1.159784e+02	1.776846e+01	2.781703e-04	-1.221663e-04	-8.046678e-02	2.812735e+02	5.392693e+00	3.786394e+02	-2.370976e+18	2.057118e+00	
1.160953e+02	1.986026e+01	4.218843e-04	1.525038e-03	-1.223186e-01	4.177437e+02	8.000156e+00	3.703704e+02	-2.370969e+18	2.084879e+00	
1.162425e+02	2.249295e+01	6.894269e-04	6.972864e-03	-1.767429e-01	6.668649e+02	1.288343e+01	3.649853e+02	-2.370955e+18	1.858320e+00	
1.164277e+02	2.580629e+01	1.275255e-03	-2.662347e-02	-2.279656e-01	1.200072e+03	2.358817e+01	3.612692e+02	-2.370924e+18	1.310289e+00	
1.166607e+02	2.997607e+01	5.063199e-04	-1.641677e-01	-7.314971e-03	4.767603e+02	9.001826e+00	3.472460e+02	-2.370966e+18	2.410135e+00	
1.157751e+02	1.373460e+01	3.638394e+00	1.308847e+03	5.484882e+02	4.594223e+06	8.489966e+04	4.637493e+02	-2.126403e+18	2.549426e+00	
1.158466e+02	1.478388e+01	1.377322e-03	1.582490e+00	-4.988097e-01	1.290303e+03	5.817083e+00	8.249366e+01	-2.370975e+18	1.835479e+01	
1.159366e+02	1.610356e+01	1.866396e-04	4.498047e-03	-5.203879e-02	1.976785e+02	3.807387e+00	3.984316e+02	-2.370981e+18	1.940119e+00	
1.160498e+02	1.776447e+01	2.754146e-04	4.795764e-04	-7.980462e-02	2.710477e+02	5.189694e+00	3.680321e+02	-2.370977e+18	2.090123e+00	
1.161923e+02	1.985484e+01	4.133276e-04	3.305648e-03	-1.196461e-01	3.994445e+02	7.642265e+00	3.611262e+02	-2.370970e+18	2.108660e+00	
1.163717e+02	2.248573e+01	6.775374e-04	9.836208e-03	-1.717990e-01	6.457010e+02	1.247692e+01	3.596715e+02	-2.370956e+18	1.853155e+00	
1.165974e+02	2.579680e+01	1.078612e-03	-4.507271e-02	-1.969741e-01	1.011031e+03	1.984194e+01	3.592956e+02	-2.370935e+18	1.367629e+00	
1.168814e+02	2.996373e+01	5.538307e-04	-1.773140e-01	-9.006518e-03	5.222538e+02	9.875887e+00	3.482818e+02	-2.370963e+18	2.376986e+00	
1.157998e+02	1.373292e+01	3.554049e+00	1.226876e+03	5.421128e+02	4.495870e+06	8.347510e+04	4.665345e+02	-2.130507e+18	2.458114e+00	
1.158857e+02	1.478121e+01	2.374247e-03	3.167826e+00	-6.480321e-01	2.591081e+03	7.785507e+00	6.405272e+01	-2.370969e+18	2.354936e+01	
1.159938e+02	1.609966e+01	1.878562e-04	4.778412e-03	-5.347031e-02	1.923502e+02	3.693590e+00	3.840200e+02	-2.370981e+18	2.017916e+00	
1.161297e+02	1.775903e+01	2.734363e-04	1.024535e-03	-7.854446e-02	2.566936e+02	4.908206e+00	3.505883e+02	-2.370978e+18	2.123065e+00	
1.163009e+02	1.984744e+01	4.068983e-04	5.272141e-03	-1.153993e-01	3.785491e+02	7.242998e+00	3.476673e+02	-2.370971e+18	2.106950e+00	
1.165163e+02	2.247588e+01	6.592197e-04	1.327401e-02	-1.623653e-01	6.159235e+02	1.191584e+01	3.530421e+02	-2.370957e+18	1.819965e+00	
1.167873e+02	2.578386e+01	7.340863e-04	-6.888528e-02	-1.412490e-01	6.837684e+02	1.333888e+01	3.548987e+02	-2.370953e+18	1.572479e+00	
1.171285e+02	2.994689e+01	6.056441e-04	-1.893144e-01	-1.029726e-02	5.712400e+02	1.083124e+01	3.492952e+02	-2.370961e+18	2.317811e+00	
1.158275e+02	1.373065e+01	3.296841e+00	1.096835e+03	5.466497e+02	4.216788e+06	7.859849e+04	4.728345e+02	-2.144556e+18	2.401336e+00	
1.159294e+02	1.477763e+01	1.725638e-02	2.556774e+01	-6.665119e-01	2.040435e+04	2.896382e+01	3.283281e+01	-2.370908e+18	3.584760e+01	
1.160577e+02	1.609442e+01	1.967564e-04	3.956546e-03	-6.262991e-02	1.778564e+02	3.356970e+00	3.332339e+02	-2.370982e+18	2.417735e+00	
1.162191e+02	1.775170e+01	2.762235e-04	2.412351e-03	-7.724717e-02	2.389307e+02	4.562369e+00	3.225973e+02	-2.370979e+18	2.155605e+00	
1.164223e+02	1.983749e+01	4.285284e-04	1.210006e-02	-1.093995e-01	3.772456e+02	7.262186e+00	3.309933e+02	-2.370971e+18	1.953587e+00	
1.166780e+02	2.246262e+01	6.294715e-04	1.469846e-02	-1.363870e-01	5.624867e+02	1.095075e+01	3.397814e+02	-2.370960e+18	1.635955e+00	
1.169998e+02	2.576644e+01	3.097734e-04	-6.651166e-02	-6.135859e-02	2.865784e+02	5.467213e+00	3.447092e+02	-2.370976e+18	2.177219e+00	
1.174048e+02	2.992424e+01	6.378259e-04	-1.975317e-01	-7.859645e-03	6.022969e+02	1.143318e+01	3.501037e+02	-2.370959e+18	2.292169e+00	
3.978025e+02	2.199159e+00	1.057218e+01	9.013927e+02	-1.278142e+01	1.342364e+07	2.558338e+05	4.951954e+02	-1.633957e+18	5.553140e-01	
3.030657e+00	3.293864e+01	3.798500e+01	6.221243e+02	-3.028439e+01	4.837699e+07	8.180173e+05	4.997175e+02	-1.435464e+16	1.215661e-01	
1.157699e+02	1.362745e+01	5.785042e+00	1.655151e+03	2.011541e+02	7.357944e+06	1.387447e+05	4.809552e+02	-1.971280e+18	1.866384e+00	
1.157611e+02	1.372009e+01	4.149803e+00	1.417336e+03	3.830739e+02	5.293870e+06	9.881359e+04	4.741181e+02	-2.086318e+18	2.291304e+00	
1.158346e+02	1.371605e+01	3.611631e+00	1.153545e+03	3.879921e+02	4.601421e+06	8.651259e+04	4.757159e+02	-2.121756e+18	2.173148e+00	
1.162268e+02	1.353121e+01	4.680363e+00	1.395839e+03	2.956522e+02	5.950542e+06	1.122931e+05	4.787642e+02	-2.047485e+18	1.968949e+00	
1.159185e+02	1.360613e+01	5.156701e+00	1.508238e+03	2.599416e+02	6.556712e+06	1.237206e+05	4.797820e+02	-2.014563e+18	1.918929e+00	
1.158657e+02	1.364375e+01	4.926558e+00	1.455022e+03	2.833050e+02	6.265681e+06	1.182315e+05	4.794165e+02	-2.030377e+18	1.944151e+00	
1.159109e+02	1.372179e+01	3.195045e+00	1.004161e+03	3.958370e+02	4.067983e+06	7.660548e+04	4.752515e+02	-2.150298e+18	2.175550e+00	
1.160834e+02	1.358848e+01	4.611401e+00	1.378687e+03	3.047955e+02	5.863194e+06	1.106413e+05	4.786277e+02	-2.052244e+18	1.977299e+00	
1.159737e+02	1.352642e+01	5.844564e+00	1.666413e+03	1.877274e+02	7.431067e+06	1.401265e+05	4.809309e+02	-1.967299e+18	1.858597e+00	
1.158834e+02	1.368380e+01	4.203655e+00	1.282869e+03	3.416843e+02	5.348737e+06	1.008696e+05	4.778031e+02	-2.080395e+18	2.037517e+00	
1.159925e+02	1.378750e+01	3.539345e+00	1.303106e+03	4.586084e+02	4.427627e+06	8.178361e+04	4.591191e+02	-2.135380e+18	2.563421e+00	
1.159663e+02	1.363704e+01	4.521679e+00	1.355040e+03	3.141375e+02	5.750051e+06	1.085112e+05	4.785315e+02	-2.058380e+18	1.985938e+00	
1.159522e+02	1.341532e+01	7.031097e+00	1.909386e+03	4.730476e+01	8.940612e+06	1.683055e+05	4.827206e+02	-1.886118e+18	1.765672e+00	
1.159802e+02	1.370525e+01	3.386469e+00	1.049576e+03	3.839508e+02	4.312294e+06	8.131433e+04	4.763488e+02	-2.136732e+18	2.124590e+00	
1.174489e+02	1.078658e+01	7.060184e+00	1.911877e+03	-3.766250e+01	8.975710e+06	1.689724e+05	4.827022e+02	-1.884197e+18	1.760766e+00	
1.159324e+02	1.347758e+01	6.656482e+00	1.836130e+03	9.497817e+01	8.463865e+06	1.594289e+05	4.821867e+02	-1.911691e+18	1.793328e+00	
1.160751e+02	1.344869e+01	6.144524e+00	1.731782e+03	1.511211e+02	7.812685e+06	1.472671e+05	4.814104e+02	-1.946728e+18	1.834139e+00	
1.161170e+02	1.378949e+01	3.314027e+00	1.056537e+03	3.922333e+02	4.221897e+06	7.941362e+04	4.752474e+02	-2.142208e+18	2.191203e+00	
1.179883e+02	1.159018e+01	7.029670e+00	1.907413e+03	-2.745849e+01	8.937411e+06	1.682552e+05	4.826732e+02	-1.886263e+18	1.763931e+00	
1.181681e+02	1.038934e+01	7.016328e+00	1.903854e+03	-4.514024e+01	8.919921e+06	1.679330e+05	4.826371e+02	-1.887191e+18	1.764264e+00	
1.167792e+02	1.248152e+01	7.230725e+00	1.943629e+03	-1.611152e+01	9.193252e+06	1.730174e+05	4.829669e+02	-1.872543e+18	1.748357e+00	
1.170365e+02	1.140327e+01	7.133139e+00	1.924868e+03	-3.078363e+01	9.068506e+06	1.707015e+05	4.828113e+02	-1.879215e+18	1.754855e+00	
1.172872e+02	1.001619e+01	6.996960e+00	1.901131e+03	-3.978986e+01	8.895429e+06	1.674733e+05	4.826066e+02	-1.888516e+18	1.766412e+00	
1.163038e+02	1.242461e+01	7.285857e+00	1.952553e+03	-1.569498e+01	9.263054e+06	1.743198e+05	4.830393e+02	-1.868792e+18	1.743389e+00	
1.167180e+02	1.313312e+01	5.975188e+00	1.696873e+03	1.512928e+02	7.596823e+06	1.432305e+05	4.811200e+02	-1.958357e+18	1.847573e+00	
1.161091e+02	1.324502e+01	7.210565e+00	1.941619e+03	1.760501e+01	9.168463e+06	1.725490e+05	4.829615e+02	-1.873893e+18	1.751292e+00	
1.163225e+02	1.314722e+01	7.048736e+00	1.912220e+03	3.055274e+01	8.962684e+06	1.687198e+05	4.827364e+02	-1.884925e+18	1.763664e+00	
1.161207e+02	1.368099e+01	3.453414e+00	1.066984e+03	3.779656e+02	4.392860e+06	8.285380e+04	4.761113e+02	-2.132297e+18	2.111355e+00	
1.194171e+02	1.085600e+01	6.767400e+00	1.860309e+03	-1.968819e+01	8.604175e+06	1.620395e+05	4.822917e+02	-1.904170e+18	1.785576e+00	
1.172352e+02	1.204692e+01	7.159838e+00	1.930554e+03	-2.445242e+01	9.102878e+06	1.713375e+05	4.828600e+02	-1.877383e+18	1.753510e+00	
1.166645e+02	1.077013e+01	7.073143e+00	1.914777e+03	-3.073761e+01	8.992291e+06	1.692790e+05	4.827199e+02	-1.883314e+18	1.760161e+00	
1.166174e+02	1.196656e+01	7.212971e+00	1.939245e+03	-2.266423e+01	9.170148e+06	1.725931e+05	4.829304e+02	-1.873766e+18	1.748696e+00	
1.160848e+02	1.400591e+01	5.619906e-01	8.683272e+02	1.784517e+01	6.847223e+05	2.250839e+02	9.498044e+00	-2.370343e+18	8.579448e+01	
1.168767e+02	8.634429e+00	6.938475e+00	1.890886e+03	-4.577113e+01	8.821102e+06	1.660856e+05	4.825159e+02	-1.892514e+18	1.771539e+00	
1.163003e+02	1.334501e+01	6.024089e+00	1.707332e+03	1.579884e+02	7.659530e+06	1.443987e+05	4.812115e+02	-1.954992e+18	1.844655e+00	
1.161902e+02	1.260580e+01	7.315920e+00	1.958095e+03	-1.284591e+01	9.301407e+06	1.750320e+05	4.830844e+02	-1.866740e+18	1.741286e+00	
1.161150e+02	1.294485e+01	7.358395e+00	1.966505e+03	-8.040908e+00	9.355828e+06	1.760394e+05	4.831516e+02	-1.863837e+18	1.738854e+00	
1.174687e+02	1.261397e+01	6.368352e+00	1.780975e+03	8.168215e+01	8.096975e+06	1.525798e+05	4.817305e+02	-1.931423e+18	1.816171e+00	
1.214391e+02	1.157073e+01	4.541429e+00	1.376040e+03	2.303519e+02	5.773563e+06	1.089547e+05	4.784440e+02	-2.057103e+18	1.983659e+00	
1.207467e+02	9.439546e+00	6.820424e+00	1.870134e+03	-4.123381e+01	8.671409e+06	1.632912e+05	4.823537e+02	-1.900564e+18	1.781693e+00	
1.163677e+02	1.142025e+01	7.148299e+00	1.928092e+03	-2.317574e+01	9.087885e+06	1.710601e+05	4.828323e+02	-1.878182e+18	1.754049e+00	
1.228421e+02	9.759118e+00	5.858428e+00	1.679172e+03	8.047159e+01	7.447940e+06	1.404340e+05	4.808783e+02	-1.966414e+18	1.859010e+00	
1.162440e+02	1.384745e+01	3.578252e+00	1.302474e+03	4.412245e+02	4.440759e+06	8.211944e+04	4.561489e+02	-2.134413e+18	2.533105e+00	
1.160624e+02	9.670273e+00	7.020372e+00	1.905818e+03	-3.584121e+01	8.925220e+06	1.680263e+05	4.826359e+02	-1.886923e+18	1.764918e+00	
1.185521e+02	9.136883e+00	6.937376e+00	1.889695e+03	-5.036795e+01	8.819514e+06	1.660605e+05	4.825169e+02	-1.892586e+18	1.770802e+00	
1.164249e+02	1.280057e+01	7.287996e+00	1.954291e+03	-9.099549e+00	9.266338e+06	1.743747e+05	4.830536e+02	-1.868633e+18	1.744380e+00	
1.229573e+01	2.124442e+01	3.786244e+01	7.250836e+02	-1.024878e+02	4.822176e+07	8.158184e+05	4.996986e+02	-2.068960e+16	1.432957e-01	
1.682297e+01	1.935095e+01	3.781814e+01	7.565883e+02	-1.388807e+02	4.816513e+07	8.150110e+05	4.996861e+02	-2.301555e+16	1.506671e-01	
1.273345e+01	1.620572e+01	3.781447e+01	7.666561e+02	-9.106485e+01	4.816039e+07	8.149431e+05	4.996845e+02	-2.321125e+16	1.512307e-01	
2.142044e+01	1.781067e+01	3.775764e+01	7.968210e+02	-1.781274e+02	4.808789e+07	8.139103e+05	4.996700e+02	-2.618675e+16	1.601315e-01	
1.751728e+01	1.371283e+01	3.776000e+01	8.102810e+02	-1.148680e+02	4.809074e+07	8.139479e+05	4.996680e+02	-2.607819e+16	1.604955e-01	
1.191475e+02	1.275664e+01	4.031720e+00	1.239846e+03	2.989211e+02	5.126074e+06	9.672704e+04	4.773520e+02	-2.092329e+18	2.040255e+00	
1.213174e+02	1.406995e+01	2.763212e+00	9.063727e+02	3.582960e+02	3.471394e+06	6.515561e+04	4.666055e+02	-2.183284e+18	2.288609e+00	
1.229693e+02	1.617852e+01	2.361042e+00	1.577803e+03	7.454282e+02	2.965483e+06	4.576225e+04	3.840780e+02	-2.239155e+18	5.293230e+00	
1.254625e+02	1.263326e+01	3.051170e+00	9.711705e+02	3.314956e+02	3.882013e+06	7.317840e+04	4.750836e+02	-2.160171e+18	2.164875e+00	
1.269075e+02	1.859301e+01	1.382704e+00	7.814160e+02	5.410799e+02	1.714653e+06	2.753796e+04	3.921989e+02	-2.291657e+18	4.841871e+00	
3.873915e+02	1.791263e+01	8.588712e+00	1.140080e+03	-3.643926e+01	1.084747e+07	2.075578e+05	4.904258e+02	-1.773036e+18	8.618578e-01	
3.832865e+02	1.761500e+01	5.385918e+00	1.129703e+03	-2.613121e+01	6.808674e+06	1.306856e+05	4.855388e+02	-1.994498e+18	1.349315e+00	
3.863491e+02	1.383366e+01	7.744205e+00	1.139591e+03	-2.712404e+01	9.794939e+06	1.878125e+05	4.902985e+02	-1.829920e+18	9.517134e-01	
3.814154e+02	1.331150e+01	4.178750e+00	1.036744e+03	-2.195197e+00	5.291920e+06	1.013843e+05	4.829113e+02	-2.078912e+18	1.591506e+00	
3.785006e+02	1.740991e+01	3.321723e+00	9.490763e+02	-6.536381e+00	4.212488e+06	8.034491e+04	4.796306e+02	-2.139525e+18	1.832325e+00	
3.764387e+02	1.308546e+01	2.870064e+00	8.828166e+02	1.134817e+01	3.645061e+06	6.929301e+04	4.777943e+02	-2.171365e+18	1.972639e+00	
3.735719e+02	1.728755e+01	2.905643e+00	8.871642e+02	1.058131e+01	3.690404e+06	7.018468e+04	4.780897e+02	-2.168796e+18	1.957746e+00	
3.714637e+02	1.297553e+01	2.712255e+00	8.552266e+02	2.411418e+01	3.447593e+06	6.545575e+04	4.772580e+02	-2.182419e+18	2.022544e+00	
3.686176e+02	1.721688e+01	2.916135e+00	8.849457e+02	2.869797e+01	3.703158e+06	7.045404e+04	4.782185e+02	-2.168020e+18	1.946529e+00	
3.665575e+02	1.293126e+01	2.754944e+00	8.606818e+02	3.785128e+01	3.500968e+06	6.650287e+04	4.774695e+02	-2.179403e+18	2.004973e+00	
3.636932e+02	1.715515e+01	2.936788e+00	8.851331e+02	4.735352e+01	3.728310e+06	7.095700e+04	4.782894e+02	-2.166571e+18	1.935028e+00	
3.619809e+02	1.291676e+01	2.796240e+00	8.685972e+02	5.030096e+01	3.552899e+06	6.750365e+04	4.775860e+02	-2.176520e+18	1.995063e+00	
3.585844e+02	1.689129e+01	2.911668e+00	8.794029e+02	6.342173e+01	3.696736e+06	7.034688e+04	4.782139e+02	-2.168328e+18	1.941286e+00	
3.563665e+02	1.367130e+01	2.866046e+00	8.813752e+02	6.345635e+01	3.641336e+06	6.921255e+04	4.778978e+02	-2.171596e+18	1.976863e+00	
3.535221e+02	1.697344e+01	2.920128e+00	8.804222e+02	7.172129e+01	3.707347e+06	7.055153e+04	4.782339e+02	-2.167739e+18	1.939320e+00	
3.514582e+02	1.288338e+01	2.934915e+00	8.985890e+02	6.597950e+01	3.728744e+06	7.087602e+04	4.780487e+02	-2.166804e+18	1.968673e+00	
3.486367e+02	1.714438e+01	2.931028e+00	8.808113e+02	7.169392e+01	3.720554e+06	7.081642e+04	4.782677e+02	-2.166976e+18	1.932976e+00	
3.464829e+02	1.286362e+01	2.999431e+00	9.122713e+02	6.624492e+01	3.810372e+06	7.244408e+04	4.782532e+02	-2.162287e+18	1.955681e+00	
3.436470e+02	1.715164e+01	2.918910e+00	8.773108e+02	6.350621e+01	3.704693e+06	7.052065e+04	4.782216e+02	-2.167828e+18	1.931947e+00	
3.414605e+02	1.297866e+01	3.037949e+00	9.197272e+02	6.014242e+01	3.858914e+06	7.338283e+04	4.783904e+02	-2.159582e+18	1.945750e+00	
3.387539e+02	1.732364e+01	2.876013e+00	8.667653e+02	4.850475e+01	3.649591e+06	6.947565e+04	4.780708e+02	-2.170838e+18	1.935102e+00	
3.364379e+02	1.221331e+01	3.083860e+00	9.325372e+02	4.769768e+01	3.917448e+06	7.449224e+04	4.784921e+02	-2.156386e+18	1.942062e+00	
3.338009e+02	1.676295e+01	2.857569e+00	8.638051e+02	3.105750e+01	3.626167e+06	6.902442e+04	4.779923e+02	-2.172138e+18	1.939164e+00	
3.315110e+02	1.266734e+01	3.064132e+00	9.246572e+02	3.092947e+01	3.891663e+06	7.402353e+04	4.784991e+02	-2.157736e+18	1.936414e+00	
3.286821e+02	1.703527e+01	2.796800e+00	8.485893e+02	7.880715e+00	3.548469e+06	6.754708e+04	4.777951e+02	-2.176394e+18	1.945105e+00	
3.265081e+02	1.282279e+01	3.028451e+00	9.138585e+02	7.889735e+00	3.845636e+06	7.316203e+04	4.784253e+02	-2.160218e+18	1.935180e+00	
3.236744e+02	1.712742e+01	2.748301e+00	8.376925e+02	-1.508581e+01	3.486939e+06	6.636629e+04	4.776234e+02	-2.179796e+18	1.954180e+00	
3.215088e+02	1.285543e+01	2.981237e+00	9.019397e+02	-1.782723e+01	3.785413e+06	7.201621e+04	4.782892e+02	-2.163519e+18	1.940367e+00	
3.186787e+02	1.714358e+01	2.721131e+00	8.321272e+02	-3.523554e+01	3.452826e+06	6.570497e+04	4.775273e+02	-2.181701e+18	1.961981e+00	
3.165130e+02	1.285969e+01	2.928700e+00	8.899109e+02	-4.344833e+01	3.718928e+06	7.073922e+04	4.781236e+02	-2.167198e+18	1.950660e+00	
3.136850e+02	1.714616e+01	2.724882e+00	8.339347e+02	-5.142441e+01	3.458121e+06	6.579598e+04	4.775386e+02	-2.181439e+18	1.965514e+00	
3.115182e+02	1.286228e+01	2.891077e+00	8.823929e+02	-6.592010e+01	3.671891e+06	6.982441e+04	4.780014e+02	-2.169834e+18	1.962399e+00	
3.086925e+02	1.715219e+01	2.768696e+00	8.456247e+02	-6.347643e+01	3.514467e+06	6.686157e+04	4.776870e+02	-2.178369e+18	1.963389e+00	
3.065257e+02	1.287363e+01	2.891590e+00	8.849355e+02	-8.332047e+01	3.673605e+06	6.983431e+04	4.779859e+02	-2.169805e+18	1.970953e+00	
3.037045e+02	1.717719e+01	2.854896e+00	8.661548e+02	-7.159679e+01	3.624115e+06	6.895372e+04	4.779447e+02	-2.172342e+18	1.951713e+00	
3.015415e+02	1.291380e+01	2.939556e+00	8.982853e+02	-9.515446e+01	3.735393e+06	7.099631e+04	4.781132e+02	-2.166458e+18	1.970492e+00	
2.987323e+02	1.725417e+01	2.977161e+00	8.937366e+02	-7.689072e+01	3.779197e+06	7.192147e+04	4.783049e+02	-2.163792e+18	1.932019e+00	
2.965697e+02	1.301578e+01	3.018335e+00	9.177313e+02	-1.017601e+02	3.835730e+06	7.290358e+04	4.783129e+02	-2.160963e+18	1.961921e+00	
2.938140e+02	1.742698e+01	3.119254e+00	9.249959e+02	-7.915589e+01	3.959459e+06	7.537311e+04	4.787299e+02	-2.153848e+18	1.908777e+00	
2.915030e+02	1.319251e+01	3.103469e+00	9.374954e+02	-1.004806e+02	3.943908e+06	7.497116e+04	4.785672e+02	-2.155006e+18	1.948630e+00	
2.893144e+02	1.772473e+01	3.266331e+00	9.561165e+02	-7.822616e+01	4.146144e+06	7.895137e+04	4.791916e+02	-2.143540e+18	1.883875e+00	
2.863948e+02	1.256371e+01	3.094260e+00	9.383201e+02	-7.756305e+01	3.931938e+06	7.473752e+04	4.784772e+02	-2.155679e+18	1.951752e+00	
2.837194e+02	1.711126e+01	3.368038e+00	9.800672e+02	-7.361489e+01	4.276551e+06	8.143646e+04	4.795649e+02	-2.136380e+18	1.871875e+00	
2.815294e+02	1.283412e+01	2.973160e+00	9.123390e+02	-3.780436e+01	3.777960e+06	7.179760e+04	4.781183e+02	-2.164149e+18	1.969669e+00	
2.787290e+02	1.714604e+01	3.326713e+00	9.722290e+02	-4.634775e+01	4.224902e+06	8.045357e+04	4.795710e+02	-2.139212e+18	1.876457e+00	
2.765592e+02	1.287786e+01	2.770818e+00	8.664726e+02	9.887211e+00	3.520949e+06	6.687713e+04	4.774413e+02	-2.178325e+18	2.005298e+00	
2.737278e+02	1.717602e+01	3.159002e+00	9.365498e+02	-2.580850e+00	4.012019e+06	7.638418e+04	4.791268e+02	-2.150936e+18	1.900883e+00	
2.716775e+02	1.309148e+01	2.654972e+00	8.378797e+02	4.368723e+01	3.374037e+06	6.406520e+04	4.770747e+02	-2.186425e+18	2.026094e+00	
2.683220e+02	1.634675e+01	2.863297e+00	8.733898e+02	5.278103e+01	3.636989e+06	6.917812e+04	4.781087e+02	-2.171696e+18	1.958866e+00	
2.666887e+02	1.261490e+01	2.602931e+00	8.250437e+02	6.676050e+01	3.308406e+06	6.280131e+04	4.769013e+02	-2.190067e+18	2.038726e+00	
2.641339e+02	1.778985e+01	2.899274e+00	8.743058e+02	7.666221e+01	3.681286e+06	7.005872e+04	4.782628e+02	-2.169159e+18	1.940469e+00	
2.616329e+02	1.300718e+01	2.626568e+00	8.286484e+02	8.511451e+01	3.339304e+06	6.339640e+04	4.771361e+02	-2.188352e+18	2.032938e+00	
2.587900e+02	1.735431e+01	2.785749e+00	8.491474e+02	1.080762e+02	3.538632e+06	6.730179e+04	4.779220e+02	-2.177101e+18	1.969416e+00	
2.566201e+02	1.316131e+01	2.701056e+00	8.456268e+02	9.701919e+01	3.435196e+06	6.523112e+04	4.775623e+02	-2.183067e+18	2.019735e+00	
2.538641e+02	1.730650e+01	2.799623e+00	8.520051e+02	1.273335e+02	3.557915e+06	6.765866e+04	4.781025e+02	-2.176073e+18	1.971917e+00	
2.517736e+02	1.333711e+01	2.843298e+00	8.766146e+02	1.048928e+02	3.616690e+06	6.871700e+04	4.782164e+02	-2.173024e+18	1.990008e+00	
2.489359e+02	1.717642e+01	2.928087e+00	8.793011e+02	1.390932e+02	3.721371e+06	7.079274e+04	4.785757e+02	-2.167044e+18	1.948495e+00	
2.471473e+02	1.267454e+01	3.046318e+00	9.222118e+02	1.035282e+02	3.874320e+06	7.365516e+04	4.788560e+02	-2.158798e+18	1.952783e+00	
2.440181e+02	1.754786e+01	3.122264e+00	9.157734e+02	1.484590e+02	3.965673e+06	7.550218e+04	4.790869e+02	-2.153476e+18	1.904894e+00	
2.412255e+02	1.408963e+01	3.273481e+00	9.615770e+02	1.248779e+02	4.162629e+06	7.922180e+04	4.797862e+02	-2.142761e+18	1.898858e+00	
2.398938e+02	1.777281e+01	3.272138e+00	9.431851e+02	1.506352e+02	4.154618e+06	7.914649e+04	4.795292e+02	-2.142978e+18	1.871715e+00	
2.366297e+02	1.287177e+01	3.459396e+00	1.004430e+03	1.236331e+02	4.399898e+06	8.374428e+04	4.803165e+02	-2.129732e+18	1.875795e+00	
2.333979e+02	1.733547e+01	3.246159e+00	9.318676e+02	1.100954e+02	4.116843e+06	7.848464e+04	4.792730e+02	-2.144884e+18	1.853828e+00	
2.317555e+02	1.303436e+01	3.659287e+00	1.040963e+03	1.324217e+02	4.654721e+06	8.863940e+04	4.810446e+02	-2.115629e+18	1.838965e+00	
2.283646e+02	1.723943e+01	2.381904e+00	7.450397e+02	-3.928582e+01	3.017988e+06	5.740718e+04	4.759214e+02	-2.205607e+18	2.008218e+00	
2.265828e+02	1.284191e+01	3.715918e+00	1.045622e+03	1.091797e+02	4.725389e+06	9.004288e+04	4.813320e+02	-2.111586e+18	1.814209e+00	
2.237310e+02	1.702151e+01	2.080090e+00	6.775246e+02	-9.040509e+01	2.638807e+06	5.005988e+04	4.745824e+02	-2.226774e+18	2.106986e+00	
2.214058e+02	1.275859e+01	2.572506e+00	7.953719e+02	-8.532415e+01	3.267811e+06	6.215160e+04	4.774732e+02	-2.191938e+18	1.992037e+00	
2.177180e+02	1.691837e+01	2.203526e+00	7.112129e+02	-1.042090e+02	2.798570e+06	5.309941e+04	4.754588e+02	-2.218017e+18	2.090800e+00	
2.152608e+02	1.350659e+01	2.251415e+00	7.272459e+02	-1.360371e+02	2.863713e+06	5.429280e+04	4.759030e+02	-2.214579e+18	2.105709e+00	
2.131254e+02	1.712177e+01	2.363066e+00	7.505926e+02	-1.112835e+02	3.001797e+06	5.699352e+04	4.762129e+02	-2.206798e+18	2.057920e+00	
2.108679e+02	1.283933e+01	2.388344e+00	7.647389e+02	-1.538791e+02	3.038910e+06	5.761157e+04	4.763359e+02	-2.205018e+18	2.093175e+00	
2.083576e+02	1.709538e+01	2.544241e+00	7.946115e+02	-1.215499e+02	3.233304e+06	6.142456e+04	4.770745e+02	-2.194033e+18	2.024649e+00	
2.059265e+02	1.292048e+01	2.581528e+00	8.141473e+02	-1.681391e+02	3.284658e+06	6.229350e+04	4.769197e+02	-2.191530e+18	2.064298e+00	
2.034407e+02	1.709774e+01	2.747913e+00	8.431522e+02	-1.336463e+02	3.493536e+06	6.640074e+04	4.779325e+02	-2.179697e+18	1.990760e+00	
2.010849e+02	1.280340e+01	2.781983e+00	8.661305e+02	-1.864488e+02	3.539871e+06	6.713723e+04	4.773998e+02	-2.177575e+18	2.042257e+00	
1.984158e+02	1.707135e+01	2.974888e+00	8.968129e+02	-1.479097e+02	3.783671e+06	7.193853e+04	4.787700e+02	-2.163743e+18	1.958116e+00	
1.961375e+02	1.270365e+01	2.997917e+00	9.233183e+02	-2.074502e+02	3.814363e+06	7.232651e+04	4.777249e+02	-2.162625e+18	2.025549e+00	