 TITLE = "Adapted Mesh"
 VARIABLES = "X", "Y"
 ZONE T = "Domain", N=       20876 E=       38703 
 DATAPACKING=POINT, ZONETYPE=FEQUADRILATERAL
   115.652200000000        13.7382300000000     
   115.652200000000        14.7896122899470     
   115.652200000000        16.1119466301946     
   115.652200000000        17.7762056196718     
   115.652200000000        19.8707748919024     
   115.652200000000        22.5069598288973     
   115.652200000000        25.8246913631930     
   115.652200000000        30.0000000000000     
   115.662200000000        13.7382299995359     
   115.668018825858        14.7896122892128     
   115.675337223113        16.1119466291208     
   115.684547985713        17.7762056181705     
   115.696140280880        19.8707748898631     
   115.710730121936        22.5069598261809     
   115.729091951041        25.8246913596245     
   115.752200000000        29.9999999860769     
   115.673399828472        13.7381680140919     
   115.685735639483        14.7895142355183     
   115.701250516132        16.1118032120201     
   115.720777174854        17.7760051077507     
   115.745352641767        19.8705025240864     
   115.776282854550        22.5065970246292     
   115.815209617297        25.8242147414576     
   115.864198284721        29.9993801212521     
   115.685942965079        13.7380208405238     
   115.705577408853        14.7892814242136     
   115.730271851153        16.1114626932616     
   115.761351695230        17.7755290309168     
   115.800467536330        19.8698558393064     
   115.849697986057        22.5057356159590     
   115.911656241885        25.8230830951912     
   115.989629650791        29.9979083739534     
   115.699989795288        13.7377584865577     
   115.727797844947        14.7888664110430     
   115.762772315610        16.1108556790542     
   115.806790361521        17.7746803687072     
   115.862189702815        19.8687030486325     
   115.931914254552        22.5042000550299     
   116.019665059956        25.8210658043834     
   116.130097952880        29.9952848212987     
   115.715719485094        13.7373423420753     
   115.752680367332        14.7882081193327     
   115.799166449865        16.1098928363082     
   115.857672739635        17.7733342251701     
   115.931306401640        19.8668744981234     
   116.023980320791        22.5017643563534     
   116.140613713805        25.8178659883049     
   116.287394850944        29.9911233619440     
   115.733332011404        13.7367228763120     
   115.780541315993        14.7872281972284     
   115.839916944947        16.1084595645914     
   115.914645714580        17.7713303782630     
   116.008696336946        19.8641525482116     
   116.127066652044        22.4981386157658     
   116.276039864877        25.8131027952463     
   116.463520114043        29.9849286880627     
   115.753050336998        13.7358367414360     
   115.811733391872        14.7858264358984     
   115.885539674818        16.1064092946166     
   115.978430526045        17.7684639105169     
   116.095339213459        19.8602588467511     
   116.242478252190        22.4929520576442     
   116.427657917501        25.8062891313764     
   116.660703369991        29.9760673211394     
   115.775122705272        13.7346031340164     
   115.846649286874        14.7838750138021     
   115.936609005763        16.1035550696879     
   116.049830191411        17.7644734391160     
   116.192325819631        19.8548383412030     
   116.371668092851        22.4857317385317     
   116.597376663580        25.7968036833565     
   116.881427052747        29.9637312266430     
   115.799825009498        13.7329192305196     
   115.885725431758        14.7812112761823     
   115.993763278197        16.0996589847086     
   116.129737169839        17.7590263506510     
   116.300868438246        19.8474392220816     
   116.516250980708        22.4758758310459     
   116.787317500302        25.7838558209852     
   117.128450095023        29.9468921689925     
   115.827463161390        13.7306544701587     
   115.929445742940        14.7776286912037     
   116.057710286885        16.0944189582813     
   116.219141024111        17.7517003072869     
   116.422311253975        19.8374878016325     
   116.678017420766        22.4626201613250     
   116.999832642535        25.7664416369102     
   117.404831613976        29.9242445400459     
   397.802175961418        2.19989352945335     
   3.03053464557711        32.9390439308182     
   115.768709260959        13.6267306512257     
   115.764501112381        13.7189844228005     
   115.835528386147        13.7126341094120     
   116.218151368776        13.5282788363916     
   115.898198740152        13.5859038230622     
   115.854129519870        13.6597977256596     
   115.911838625247        13.7206541219210     
   116.073688173204        13.5494097702867     
   115.994301420535        13.5467373756630     
   115.882195115776        13.6846490753751     
   115.991196440142        13.7925504150469     
   115.962126692657        13.6383225443927     
   115.953957464102        13.4053425304575     
   115.985299722504        13.7153773550719     
   117.455764061809        10.7193429507730     
   115.931580021476        13.4606190685857     
   116.068502549009        13.4232752657142     
   116.076656137011        13.8030958312871     
   117.970718302783        11.5641735177990     
   118.193169052070        10.3289459269071     
   116.801322570432        12.5040646201167     
   117.053387972016        11.3557715039181     
   117.307589594598        9.84123192552010     
   116.389395131657        12.3879852286889     
   116.732327348106        13.1536672388896     
   116.121419222976        13.2491734241476     
   116.309436795271        13.1253025047180     
   116.153989382961        13.6836279372994     
   119.419938244761        10.8047219309031     
   117.242081995237        12.0047838295730     
   116.631099716302        10.6522150427878     
   116.639626621003        11.9403897074228     
   116.097475038156        14.0012871858654     
   117.022340967509        8.65749775383624     
   116.283699464137        13.3460779230733     
   116.112337764382        12.5917199223368     
   116.085708209075        12.9238592419612     
   117.545636176789        12.6712876756700     
   121.440928938725        11.5538094533492     
   120.742450974016        9.40052152526208     
   116.352976559113        11.3767395030458     
   122.892915196740        9.87347664353402     
   116.238652778383        13.8318009581722     
   116.004185515923        9.63398258429071     
   118.625088711046        8.99107458459134     
   116.415524309896        12.7626675684872     
   12.2996187141332        21.2456559391466     
   16.8280459001576        19.3498438045373     
   12.7390993802940        16.2060673434926     
   21.4249290241044        17.8051519027793     
   17.5227699020626        13.7097763707178     
   119.112595753393        12.7785228011976     
   121.284527373082        14.1912340964635     
   123.034586795410        16.1580495746942     
   125.309860568870        12.6297472501708     
   127.077863892100        18.4222118701087     
   387.386723831665        17.9314968039388     
   383.281260347670        17.6359904569197     
   386.343710122396        13.8526411061259     
   381.409333898894        13.3322216105457     
   378.495398534075        17.4307579698161     
   376.431938819101        13.1047149023341     
   373.565407393819        17.3059334200069     
   371.445936751008        12.9887397317740     
   368.595808984831        17.2325746439412     
   366.456495387385        12.9265134784527     
   363.612475495754        17.1907434268127     
   361.464764710103        12.8930563849319     
   358.623513344336        17.1677407230018     
   356.471484375968        12.8754578503263     
   353.632032024398        17.1556172509266     
   351.477266800593        12.8665250371665     
   348.639400264757        17.1495258808849     
   346.482547570136        12.8621892717069     
   343.646258806022        17.1466220157274     
   341.487590910132        12.8601903802965     
   338.652906548597        17.1453141332361     
   336.492536082520        12.8593196828308     
   333.659475870820        17.1447596960804     
   331.497447024416        12.8589628776948     
   328.666020321410        17.1445392154506     
   326.502348877521        12.8588258170053     
   323.672558866917        17.1444572132808     
   321.507249677410        12.8587766168602     
   318.679096964759        17.1444287659114     
   316.512150875236        12.8587595983238     
   313.685635216771        17.1444188554575     
   311.517038721776        12.8587267651455     
   308.692159618435        17.1443885030359     
   306.521663786465        12.8581916330076     
   303.698494502782        17.1440123543076     
   301.523892298111        12.8531591030080     
   298.703759628585        17.1418736754031     
   296.515879416206        12.8304351694901     
   293.706954572212        17.1384840465941     
   291.497440670403        12.8045926567566     
   288.707355096529        17.1440369187137     
   286.481973318436        12.8353506047253     
   283.694253088408        17.1885553776844     
   281.444690477149        13.0038494167354     
   278.633072134276        17.3172926115290     
   276.422992948890        13.4318378000040     
   273.414850505769        17.4165277073804     
   271.370490175223        12.9329849022472     
   268.608553925857        18.0742594185112     
   266.623055576218        12.4820661689847     
   263.745354232579        17.2119890991636     
   261.364243635609        12.5521453658650     
   258.732381283075        17.1224785111171     
   256.304481474038        12.0641374588979     
   253.684608465298        16.9745002094279     
   251.841029219572        12.7099518316726     
   249.043176331171        16.2892303644045     
   246.727142062885        12.6961468050099     
   244.052986440413        17.0502920993871     
   241.607752219536        12.8768615841138     
   238.581221156691        17.2004776975074     
   236.507155549943        12.9915245167661     
   233.460210998866        16.7483994373827     
   231.960168922001        12.6718580282954     
   228.791441115055        16.7367458901501     
   226.615527844482        12.3165793779016     
   222.072699097123        17.6841675967064     
   221.917602060404        12.8268075135057     
   217.826255329255        18.1880906525784     
   216.871845963908        13.0865755751124     
   212.437494752893        16.9652371579279     
   209.614627073427        13.8900974524375     
   207.852608520990        17.4670991721631     
   205.576473312812        13.6673447449298     
   203.241490403870        17.5415292351970     
   200.931498379740        13.6057951896225     
   198.498618406362        17.5738473329475     
   196.210827639163        13.6341876025791     
   193.754346271654        17.6676163441389     
   191.530867103059        13.8756642762915     
   189.480802528748        17.7059849189518     
   186.531451768275        12.8663659759972     
   184.129285526491        17.6406230660586     
   181.617550616925        12.7906406645966     
   178.996257348213        17.5650807234526     
   176.678630428311        12.8873082532190     
   173.944832181884        17.1922744188396     
   171.750447491400        12.4911513613797     
   168.866595371146        17.1909712046198     
   166.717598005854        12.3123907681151     
   163.786681175780        17.2842140417011     
   161.838957542764        12.9046023430236     
   159.098631918374        17.0625664254581     
   157.447189796349        11.3953240494910     
   154.036018333518        16.9344618659905     
   152.071462912811        12.9383091752085     
   149.611814305100        16.4897035104231     
   147.346285050991        12.4773938821463     
   145.550913078082        16.8794403059293     
   142.275949987274        13.0732379034618     
   137.892497308936        13.1598454574608     
   132.215464666093        14.1285641982682     
   116.453919952538        13.6441804230884     
   122.536698128000        7.57657643442308     
   117.729873396197        7.33335181689316     
   113.958128384339        10.2018998500093     
   115.794785919873        12.7480840310834     
   115.599049008527        10.9182920234426     
   111.903073213845        7.95311600173514     
   107.459088284761        8.23860053229553     
   111.737280204165        9.78300926110484     
   99.9937733270566        5.68763136155155     
   32.7273414768616        11.8910147040950     
   28.3880216328409        13.4641595600674     
   25.3754907446104        16.8513665360250     
   23.0586890141310        13.2472280966607     
   12.9876985968271        11.9287114818318     
   7.45834897109716        27.7436682470467     
   7.94077606081170        23.1314016391303     
   11.7726495638243        26.1269644182436     
   16.2473947607407        24.4294487096440     
   8.27287773214294        18.2301113609334     
   20.7384609299336        22.7006470121683     
   118.864053878937        14.8145067299931     
   120.442076154397        16.4972342407031     
   121.558387906094        18.5835977967047     
   122.633116320502        22.1329803904450     
   127.338119401946        23.7131872678648     
   390.846931891528        21.0666008456864     
   385.454356305648        21.6392502476504     
   391.003656828040        15.4772779572013     
   390.434692893124        9.62969429346346     
   384.542606119236        9.12366676146643     
   380.593900068669        21.6457226017187     
   379.356618719111        8.86174676688760     
   375.686425629296        21.5764097578730     
   374.314598507655        8.72461349231433     
   370.733307752955        21.5173866076254     
   369.307616507687        8.65173048578685     
   365.758404405741        21.4784628954026     
   364.309421316268        8.61293497513073     
   360.773924731292        21.4553310530810     
   359.313065212480        8.59255685683918     
   355.785251847435        21.4424940679535     
   354.316813970901        8.58213221524678     
   350.794738910224        21.4357762929317     
   349.320365871640        8.57699420395353     
   345.803430554187        21.4324558636049     
   344.323758845564        8.57457505409724     
   340.811792223898        21.4309078359849     
   339.327068698869        8.57349424150126     
   335.820026457696        21.4302287432941     
   334.330344967815        8.57303847750350     
   330.828216571434        21.4299491870677     
   329.333611120565        8.57285786382151     
   325.836393828396        21.4298414830003     
   324.336875756273        8.57279084149608     
   320.844568435321        21.4298027473538     
   319.340140937757        8.57276739884054     
   315.852743026865        21.4297897764282     
   314.343399712361        8.57274567082262     
   310.860917646352        21.4297852550259     
   309.346480415577        8.57238070228175     
   305.869084479859        21.4297706415250     
   304.347246270496        8.56752291462344     
   300.877183437203        21.4296631987544     
   299.331246788104        8.53050398122128     
   295.885055104574        21.4295042434714     
   294.251707764413        8.37704901378528     
   290.892179190045        21.4306685549813     
   289.161465984867        8.29100198023149     
   285.895215106033        21.4396943255906     
   284.162379508381        8.44754665258689     
   280.880372261058        21.4732825340115     
   279.028349798077        8.81748769573850     
   275.819042343185        21.5418871520068     
   274.073580159432        8.54118025882346     
   270.754452804628        21.6890079763267     
   269.292058295753        8.97974168216287     
   265.533679547148        21.6908976972955     
   264.914584396227        8.22418081823738     
   260.673468398979        22.4473777471572     
   259.782758865709        9.06328318970505     
   256.370466130602        21.3149693549019     
   254.482877167979        8.53695999259404     
   250.949693698988        21.5082342092730     
   249.481457714513        8.53660972432509     
   245.930015850525        21.3107078510761     
   244.437545219765        8.57020175613804     
   241.105590770641        20.7770243961545     
   239.424367201044        8.62599803376795     
   235.672592532783        20.7425651672503     
   234.554479982791        8.61366807847004     
   230.643383591730        21.5246535874213     
   229.856486888163        8.65280047500689     
   224.776154269344        22.4979349331862     
   224.189243057074        8.50816705850289     
   220.187682048103        21.2241988076124     
   219.221505969896        8.58396665186510     
   215.342642467522        20.9014360616549     
   214.413139758401        8.57316994191141     
   210.402681066381        21.3469224235659     
   209.302529330697        8.65643629657965     
   205.598478012987        21.5503699442279     
   203.311559596965        10.2349574869667     
   200.780997200464        21.6148477705958     
   198.606158971822        9.23816068090811     
   195.903843447976        21.6800740578871     
   193.839876030169        10.1231390520115     
   190.770199316847        21.8796836009958     
   189.452503972003        8.31803558260388     
   186.089044501203        20.9631706565031     
   184.285718221373        8.76313406257211     
   180.059258802494        22.0510600020445     
   179.259408516659        8.33095390753552     
   176.741187366576        22.3378480291554     
   174.444329826092        8.14917346828875     
   171.212363374484        21.9466421480998     
   169.871025263624        7.42398031844354     
   166.155649024248        21.4637927542529     
   165.180995785693        7.93301820151458     
   160.949586912688        21.4814864803886     
   160.328877378184        8.06761554719742     
   156.081873481660        21.4515383059287     
   154.566606167427        9.32154166698032     
   151.270856293024        20.9749858087322     
   150.096207127513        8.79898878128413     
   146.269785598341        21.5206307467232     
   144.346314459936        8.23813279607778     
   141.806966568624        20.8604794094020     
   138.256772402660        17.4164720176729     
   139.975977702540        9.28300852567438     
   134.985581719361        8.56370181396178     
   129.381595744275        8.82865918305266     
   117.287193553100        13.8874042297419     
   124.898292558846        7.91327716458505     
   120.003211900728        7.00324749495640     
   112.781077532010        11.1813359241772     
   113.687892008692        11.9308817922453     
   115.834845109020        12.0584419617019     
   115.339009028807        7.52334407887380     
   114.493512681403        11.7056399988901     
   110.034824017797        7.84381778507618     
   110.035955433599        10.9618390989314     
   111.275065159189        11.2048149502361     
   109.053393081700        10.1559249775113     
   106.716975177049        10.1157875443010     
   104.440775325063        7.71764783243979     
   105.517117499893        9.47907354247031     
   103.365259736544        9.18518367704155     
   101.995793840065        8.32630395179740     
   99.9017467793567        8.30029521643233     
   97.4779185987018        8.04972489033829     
   96.2915578669273        7.64842022011815     
   94.3768775050221        6.81676019313744     
   43.5738563743727        8.27943578796246     
   41.3171379238288        11.5695707076079     
   39.3019492999886        8.20203398469772     
   37.2021264691606        12.9519141664565     
   34.8599667959575        8.31936374414283     
   32.9721213430275        16.1735204041849     
   30.2418080306753        8.50440538485211     
   28.9844887611287        18.7617743319927     
   25.3737319929523        8.79641743579288     
   25.0318646690681        20.9654615053698     
   20.2747047638094        8.84595132622634     
   15.3507884273993        8.58150354198852     
   8.52760259254553        12.7714067762708     
   10.8025139252297        8.37358136457772     
   6.95029573438439        8.30721945550160     
   3.49553677959717        29.3676095105548     
   6.66512128999551        31.9969373875648     
   3.81957057362738        25.0264057123072     
   11.0574686828362        30.8133598932625     
   4.02356121231656        20.4162763871671     
   15.6341854831667        29.3986593418329     
   20.2141258711853        27.7541047386600     
   117.553491035562        16.3857170450841     
   118.407256392362        18.2917351276219     
   119.198658052508        20.7527488659901     
   119.437484747330        23.4547244302200     
   121.744548210250        26.3707313367294     
   392.737305087380        26.0631920102204     
   396.745812959274        26.7693712902202     
   395.979898287552        22.7853866507071     
   387.815937636039        25.7615717122752     
   395.548414018185        17.8168303981518     
   396.208518477759        3.80012144195414     
   392.476587482969        4.25886598737905     
   395.763247609366        7.54367510400632     
   387.451915665631        4.58344586142412     
   395.458585330023        12.5770302187445     
   382.798394240618        25.8063730217953     
   382.255815345265        4.49428352011410     
   377.844424987266        25.7989436097803     
   377.181586883629        4.40376068640151     
   372.883268182508        25.7725775131752     
   372.160282047543        4.34877598252014     
   367.908289823187        25.7494760238241     
   367.155878179682        4.31853709476251     
   362.925119169488        25.7339828099870     
   362.156252167097        4.30247935693598     
   357.938000726956        25.7247858482772     
   357.157785632713        4.29417895042230     
   352.949104981294        25.7197434880833     
   352.159506093316        4.29002606603591     
   347.959435532285        25.7171541764643     
   347.161204583700        4.28803124467449     
   342.969441130972        25.7159040444209     
   342.162865361580        4.28711814961670     
   337.979317490213        25.7153366392334     
   337.164505511863        4.28672233391657     
   332.989146525056        25.7150949422589     
   332.166138156019        4.28656065665865     
   327.998960252715        25.7149985313241     
   327.167769307366        4.28649868480332     
   323.008769949314        25.7149626027780     
   322.169400778543        4.28647643270923     
   318.018578997896        25.7149501230560     
   317.171031256106        4.28646593661743     
   313.028388148968        25.7149460988801     
   312.172612194523        4.28636246738940     
   308.038197267770        25.7149448283387     
   307.173331834856        4.28456555624894     
   303.048003650675        25.7149433779845     
   302.165117314156        4.26509896856047     
   298.057792139849        25.7149566095441     
   297.095934131572        4.12312907294922     
   293.067470967278        25.7151642495686     
   291.706832170627        3.31422080657623     
   288.076428514024        25.7166183837557     
   286.569041724220        3.52016860322602     
   283.081670322488        25.7230709705586     
   281.942627367869        3.92467110994556     
   278.075004795568        25.7413948416383     
   277.133255392010        4.46761426835960     
   273.051945444849        25.7812039243571     
   272.575414543679        4.11165028756402     
   267.998015326258        25.8315525165972     
   267.616229748971        4.36023198713849     
   262.951804543392        25.9743437965347     
   262.428977400061        4.33989617496905     
   257.800549171715        26.0155502835642     
   257.315497270105        4.38652290410367     
   253.153235300224        26.8419023021666     
   252.244381512203        4.30275310719604     
   248.268638930433        25.8173653166132     
   247.224755621519        4.29314820335351     
   243.624536331066        25.8232452936167     
   242.219478242902        4.30774010134887     
   238.063824863950        25.2566830248228     
   237.253836435000        4.32211527951519     
   232.869711711025        26.0267521399859     
   232.334152095516        4.35545244176061     
   227.465765903684        26.3476734409568     
   227.340756510054        4.51832812639215     
   223.159304066546        25.2009237996178     
   222.911668349845        4.02760608020030     
   217.935211765494        25.4791129968616     
   216.918897393158        4.41235788924979     
   212.947898621365        25.5694548435443     
   212.022671745993        4.30060513030868     
   208.009487584142        25.6990541503518     
   207.461938236407        4.21273802834999     
   203.096344936141        25.7625352802711     
   202.766985979126        4.25509658886002     
   198.181759540179        25.7952687878054     
   197.143686358784        6.07394121320676     
   193.305356402879        25.8832139307283     
   192.110160583185        4.44070885786287     
   189.010912923301        26.2246386167584     
   187.254269087831        3.78176602009037     
   183.237265444373        25.7368865183097     
   181.000018439626        3.33996491611803     
   177.201188933044        25.2919939654554     
   177.277430615249        3.54130492972532     
   172.546270001882        25.7605817184275     
   172.523623617364        3.99429591751029     
   167.828993661460        26.1423792586223     
   167.483431678430        3.91602369973279     
   163.291081849900        25.6404247493850     
   162.418975682715        4.05067384935009     
   158.487142150604        25.4971559956776     
   157.446942909064        5.52016065772431     
   153.342639501175        25.6618755202659     
   152.498061820011        4.28297580129529     
   148.042472221164        26.0167874370939     
   146.989600208243        4.26523299543777     
   143.076736672823        25.9677214351551     
   142.226707671722        4.76700676874533     
   139.738213814958        26.2703826966081     
   137.367887887923        4.40568817286468     
   134.503766233754        22.9415030325671     
   132.204399336081        4.55208788172470     
   116.857155517580        15.2513731623113     
   116.409310654467        14.0161830626364     
   127.271796243559        4.47378431679792     
   122.455495097315        4.22234303686494     
   113.015640272143        12.5781966942419     
   117.604251998424        4.34416439757885     
   114.049742460076        12.8846765448250     
   115.198187202357        12.8150629533128     
   112.682978947856        4.46366540417578     
   111.824936850766        12.4523026099493     
   110.397214710740        12.3594779927894     
   109.215363222501        11.8695587355819     
   108.042837164139        12.0372171483755     
   107.957910836600        4.22290123930856     
   105.718902947365        11.9146924025067     
   103.918142933435        11.3366394718041     
   102.018192746323        10.6064160390859     
   103.601645342692        4.00747694353136     
   100.569585343965        10.5348363291451     
   99.2309371882195        10.6017895714895     
   96.3951717410459        9.90918797483750     
   96.7117103426392        5.12050437706650     
   94.8689298301443        9.45328002325870     
   92.1879237127665        8.68740286627909     
   92.4228997890362        4.85024721223039     
   89.5292535876220        8.11999030240001     
   86.7264009206803        7.59130837610560     
   87.2634246211646        4.19742668855183     
   84.1920157420618        6.40334611622534     
   83.3802982362608        3.05619936044251     
   80.8956906763819        5.13199066294070     
   77.1154865573159        4.26500356099289     
   72.7614596831933        4.09421209182438     
   68.2132730772183        4.23040556515215     
   62.9344844101322        4.98584921461649     
   59.5673285593989        7.79265999000414     
   57.6354860546871        4.27560470536549     
   55.4715405568376        8.43062476301708     
   52.8544391782326        4.26297001461125     
   49.0546812436046        9.85622949387577     
   47.7207752680951        4.67310139120662     
   44.6517731527958        12.5061394136669     
   41.6627700261789        3.93843172620034     
   41.8727432328090        15.8457493177008     
   37.2171355167025        4.11541551892679     
   37.3895590654199        18.6060758039802     
   32.4896287694132        4.21239085812572     
   33.1692689484054        21.3283819481192     
   27.6267649112657        4.31812642076313     
   28.9874344393524        23.7688402092944     
   22.6598739461075        4.38576119291955     
   24.6883920517222        25.8963851649144     
   17.6862965920474        4.34916769161897     
   4.10947831673600        15.6102278600086     
   12.8342424207735        4.27959138067620     
   3.83456037373266        10.7439065601785     
   8.16782534124851        4.37254445503672     
   3.42166836684777        5.27479691976767     
   115.832028112974        13.2263295358614     
  0.000000000000000E+000  0.000000000000000E+000
  0.000000000000000E+000   36.0000000000000     
   400.000000000000        30.0000000000000     
   400.000000000000       0.000000000000000E+000
  0.000000000000000E+000   4.50000000000000     
  0.000000000000000E+000   9.00000000000000     
  0.000000000000000E+000   13.5000000000000     
  0.000000000000000E+000   18.0000000000000     
  0.000000000000000E+000   22.5000000000000     
  0.000000000000000E+000   27.0000000000000     