 TITLE = "Edge Error"
 VARIABLES = "X", "Y","Estimate1" 
 ZONE T = "Domain", I=       36183  DATAPACKING=POINT, ZONETYPE=ORDERED
   115.652356500000        13.7382300000000        1659.32217498161     
   115.652200000000        13.7546578500000        93476.2735314351     
   115.652515500000        13.7546578500000        174179.527843028     
   115.652359000000        13.7710857000000        904.727489709965     
   115.652669000000        13.7382300000000        1774.69449121101     
   115.652830500000        13.7546578500000        186887.285452783     
   115.652677000000        13.7710857000000        810.511307350186     
   115.652521000000        13.7875135500000        83741.8767469654     
   115.652842000000        13.7875135500000        81425.2996984931     
   115.652686000000        13.8039414000000        240.590090029403     
   115.652200000000        13.7875135500000        93476.2735314301     
   115.652362000000        13.8039414000000        453.054446607749     
   115.652981000000        13.7382300000000        2771.42436199410     
   115.653146000000        13.7546578500000        291849.682939378     
   115.652995500000        13.7710857000000        1002.46628229426     
   115.653293500000        13.7382300000000        2780.30713248909     
   115.653461500000        13.7546578500000        252498.890305310     
   115.653314000000        13.7710857000000        999.323754771539     
   115.653163500000        13.7875135500000        103249.955609916     
   115.653484000000        13.7875135500000        83960.2824020367     
   115.653333500000        13.8039414000000        6.93390350169433     
   115.653010000000        13.8039414000000        11.4108078066860     
   115.652853500000        13.8203692500000        1157.12993541696     
   115.653180500000        13.8203692500000        608.286395159908     
   115.653024000000        13.8367971000000        8.59432883743211     
   115.653506500000        13.8203692500000        705.319842398859     
   115.653353500000        13.8367971000000       5.489185988878458E-003
   115.653197500000        13.8532249500000       0.548179550857351     
   115.653529500000        13.8532249500000       0.227549134339878     
   115.653373500000        13.8696528000000       2.727290588592662E-003
   115.652864500000        13.8532249500000        855.674866112557     
   115.653038000000        13.8696528000000        3.98013121886658     
   115.652200000000        13.8203692500000        45942.6573491522     
   115.652527000000        13.8203692500000        24397.3949155404     
   115.652365000000        13.8367971000000        284.072005338432     
   115.652694500000        13.8367971000000        150.320033003441     
   115.652532500000        13.8532249500000        15011.7628128380     
   115.652702500000        13.8696528000000        47.1039482191309     
   115.652200000000        13.8532249500000        28282.9835928759     
   115.652367500000        13.8696528000000        86.2476713077594     
   115.653606000000        13.7382300000000        2397.74634145687     
   115.653776500000        13.7546578500000        102816.143925531     
   115.653632000000        13.7710857000000        812.625018423996     
   115.653918500000        13.7382300000000        1090.15432891685     
   115.654092000000        13.7546578500000        114433.874639079     
   115.653950000000        13.7710857000000        519.466162935767     
   115.653805000000        13.7875135500000        52831.9761968342     
   115.654126000000        13.7875135500000        53671.1746782101     
   115.653981000000        13.8039414000000        6.85673079269370     
   115.653657000000        13.8039414000000        6.95537069483818     
   115.654231000000        13.7382300000000        1086.67140769756     
   115.654407000000        13.7546578500000        103851.137764828     
   115.654268000000        13.7710857000000        519.466162912553     
   115.654543500000        13.7382300000000        1112.70454075306     
   115.654722500000        13.7546578500000        116801.025139597     
   115.654586000000        13.7710857000000        530.997716461473     
   115.654447000000        13.7875135500000        52010.2331178365     
   115.654768000000        13.7875135500000        54862.6376453446     
   115.654629000000        13.8039414000000        6.50333706150686     
   115.654305000000        13.8039414000000        6.47061687123923     
   115.654160000000        13.8203692500000        656.162841275276     
   115.654487000000        13.8203692500000        648.676565634151     
   115.654342000000        13.8367971000000       1.956880718009710E-003
   115.654813500000        13.8203692500000        659.481147833683     
   115.654671500000        13.8367971000000       2.282955627736982E-003
   115.654527000000        13.8532249500000       0.194832525625215     
   115.654859000000        13.8532249500000       0.227988385200078     
   115.654714500000        13.8696528000000       2.200622578879534E-004
   115.654194000000        13.8532249500000       0.119342645013408     
   115.654379000000        13.8696528000000       2.188186665849266E-004
   115.653833500000        13.8203692500000        695.317214988517     
   115.653683000000        13.8367971000000       2.285484586576065E-003
   115.654012500000        13.8367971000000       1.195034931144365E-003
   115.653862000000        13.8532249500000       0.112032933359101     
   115.654043500000        13.8696528000000       1.975444837719272E-004
   115.653708500000        13.8696528000000       1.737022804445327E-004
   115.653552500000        13.8860806500000        47.8240556742346     
   115.653890500000        13.8860806500000        20.9730592607271     
   115.653734500000        13.9025085000000       0.496352200339905     
   115.654228000000        13.8860806500000        18.5595676145013     
   115.654075000000        13.9025085000000       0.217035015876293     
   115.653919000000        13.9189363500000        69.4972949747910     
   115.654262500000        13.9189363500000        50.6772446243016     
   115.654106500000        13.9353642000000       0.733983832317346     
   115.653575000000        13.9189363500000        225.930803577592     
   115.653759500000        13.9353642000000        2.38612999461895     
   115.654566500000        13.8860806500000        18.3972557798867     
   115.654415500000        13.9025085000000       0.192624389914965     
   115.654904500000        13.8860806500000        18.3810259489133     
   115.654756500000        13.9025085000000       0.190939770007409     
   115.654606000000        13.9189363500000        49.4141131914815     
   115.654950000000        13.9189363500000        49.3027788642352     
   115.654799500000        13.9353642000000       0.521878534638702     
   115.654453000000        13.9353642000000       0.533676552038372     
   115.654297000000        13.9517920500000        50.6772430046900     
   115.654646000000        13.9517920500000        49.4141131914788     
   115.654490000000        13.9682199000000       0.521892897586498     
   115.654995500000        13.9517920500000        49.3027767861610     
   115.654842000000        13.9682199000000       0.511415739561788     
   115.654686000000        13.9846477500000        47.6591840225811     
   115.655041000000        13.9846477500000        47.7356209743957     
   115.654885000000        14.0010756000000       0.114732105419323     
   115.654331000000        13.9846477500000        48.7135387957119     
   115.654527000000        14.0010756000000       0.105373412266637     
   115.653597500000        13.9517920500000        262.503868341897     
   115.653947000000        13.9517920500000        72.3883373183136     
   115.653785000000        13.9682199000000        2.81233816397250     
   115.654137500000        13.9682199000000       0.777736398692438     
   115.653975500000        13.9846477500000        72.3883392294540     
   115.654169000000        14.0010756000000       0.409534501048040     
   115.653620500000        13.9846477500000        262.503868341911     
   115.653811000000        14.0010756000000        2.28247226581932     
   115.652200000000        13.8860806500000        19577.5518946672     
   115.652538000000        13.8860806500000        11459.3902936525     
   115.652370500000        13.9025085000000        203.189863439148     
   115.652876000000        13.8860806500000        1827.98479612105     
   115.652711500000        13.9025085000000        118.933762636181     
   115.652544000000        13.9189363500000        19761.4369398007     
   115.652887500000        13.9189363500000        4427.88707880539     
   115.652720000000        13.9353642000000        208.105657992633     
   115.652200000000        13.9189363500000        32280.1165400197     
   115.652373500000        13.9353642000000        340.921071215875     
   115.653214500000        13.8860806500000        196.885566776684     
   115.653052500000        13.9025085000000        18.9721349381263     
   115.653393500000        13.9025085000000        2.04341923273650     
   115.653231500000        13.9189363500000        999.909608608595     
   115.653413000000        13.9353642000000        10.5299439146078     
   115.653066500000        13.9353642000000        46.7643888333934     
   115.652899000000        13.9517920500000        5657.80292615026     
   115.653248500000        13.9517920500000        1214.72644690742     
   115.653081000000        13.9682199000000        60.6149464820441     
   115.653433000000        13.9682199000000        13.0139869819741     
   115.653265500000        13.9846477500000        1214.72644690749     
   115.653453000000        14.0010756000000        10.4229796326010     
   115.652910500000        13.9846477500000        6626.29163624494     
   115.653095000000        14.0010756000000        72.2009353862209     
   115.652200000000        13.9517920500000        44240.7837673301     
   115.652549500000        13.9517920500000        26761.9986741454     
   115.652376000000        13.9682199000000        473.974253672615     
   115.652728500000        13.9682199000000        287.529573945794     
   115.652555000000        13.9846477500000        32499.1452826164     
   115.652737000000        14.0010756000000        354.114927314212     
   115.652200000000        13.9846477500000        53311.4716060259     
   115.652379000000        14.0010756000000        580.888760101203     
   115.654856000000        13.7382300000000        1322.44193332266     
   115.655038000000        13.7546578500000        139262.211049647     
   115.654904500000        13.7710857000000        563.589735488801     
   115.655168500000        13.7382300000000        1326.68052931241     
   115.655353500000        13.7546578500000        109571.651474220     
   115.655223000000        13.7710857000000        561.822996535592     
   115.655089500000        13.7875135500000        58047.5159277379     
   115.655410500000        13.7875135500000        54780.5738319859     
   115.655277000000        13.8039414000000        8.03010160871331     
   115.654953000000        13.8039414000000        8.03010160836111     
   115.655762500000        13.8039414000000        15.7062473918933     
   115.655700000000        13.7710857000000        1060.40633823091     
   115.656052000000        13.7875135500000        54603.8316221138     
   115.655637500000        13.7382300000000        2084.33176327987     
   115.655984000000        13.7546578500000        105703.923859047     
   115.655523500000        13.8532249500000       0.136181579828012     
   115.655887500000        13.8696528000000       3.769324585678444E-004
   115.655825000000        13.8367971000000       2.735589484595856E-003
   115.656189000000        13.8532249500000       0.124582475759603     
   115.655467000000        13.8203692500000        797.589647596708     
   115.656120500000        13.8203692500000        735.388717294222     
   115.655140500000        13.8203692500000        814.305331077258     
   115.655001000000        13.8367971000000       2.289894702477032E-003
   115.655330500000        13.8367971000000       2.005582885794425E-003
   115.655191500000        13.8532249500000       0.200288477217376     
   115.655384500000        13.8696528000000       2.283800233323379E-004
   115.655049500000        13.8696528000000       2.283800233226499E-004
   115.656410000000        13.8039414000000        18.9319145404763     
   115.656336500000        13.7710857000000        1078.30813514438     
   115.656694500000        13.7875135500000        55618.0078636518     
   115.656262500000        13.7382300000000        2024.41202822158     
   115.656615000000        13.7546578500000        106421.874310713     
   115.657058000000        13.8039414000000        19.0538807949409     
   115.656973000000        13.7710857000000        1076.61534372770     
   115.657336500000        13.7875135500000        54842.7838977184     
   115.656887500000        13.7382300000000        2024.41202822158     
   115.657245500000        13.7546578500000        104283.395026046     
   115.656853500000        13.8532249500000       0.124484089598814     
   115.657228500000        13.8696528000000       3.856967785239287E-004
   115.657143500000        13.8367971000000       2.496911967598691E-003
   115.657518500000        13.8532249500000       0.124488778749765     
   115.656774000000        13.8203692500000        959.912266128630     
   115.657427500000        13.8203692500000        966.097210518294     
   115.656558000000        13.8696528000000       3.772714638212466E-004
   115.656484500000        13.8367971000000       2.498795511573675E-003
   115.656325000000        13.9189363500000        49.2381974520498     
   115.656705500000        13.9353642000000        1.03854118931807     
   115.656632000000        13.9025085000000       0.380911837631577     
   115.657012500000        13.9189363500000        49.2186267303006     
   115.656257000000        13.8860806500000        18.3506625627676     
   115.656933000000        13.8860806500000        18.3391262616332     
   115.657399000000        13.9353642000000        1.03962564218902     
   115.657314000000        13.9025085000000       0.380672061010104     
   115.657700500000        13.9189363500000        49.1937180203103     
   115.657609500000        13.8860806500000        18.3190790270498     
   115.657171500000        13.9846477500000        48.1271863756339     
   115.657569000000        14.0010756000000       0.114486710600028     
   115.657484000000        13.9682199000000        1.03361699227298     
   115.657881500000        13.9846477500000        48.2391194176364     
   115.657092000000        13.9517920500000        49.2186303550028     
   115.657791000000        13.9517920500000        49.1937138961670     
   115.656461500000        13.9846477500000        48.0243276627211     
   115.656853500000        14.0010756000000       0.117609796390479     
   115.656779500000        13.9682199000000        1.03268438399836     
   115.656393000000        13.9517920500000        49.2381974520472     
   115.655242500000        13.8860806500000        18.3724325857321     
   115.655097500000        13.9025085000000       0.190771280775469     
   115.655580500000        13.8860806500000        18.3621970738513     
   115.655438500000        13.9025085000000       0.190682041897676     
   115.655293500000        13.9189363500000        49.2789393206153     
   115.655637500000        13.9189363500000        49.2574204552728     
   115.655492500000        13.9353642000000       0.520450678063229     
   115.655146000000        13.9353642000000       0.519201988341905     
   115.656012500000        13.9353642000000        1.03894730613840     
   115.655950000000        13.9025085000000       0.381151506706064     
   115.655751500000        13.9846477500000        47.9345445798771     
   115.656138000000        14.0010756000000       0.149300571066885     
   115.656075000000        13.9682199000000        1.02901633868942     
   115.655694500000        13.9517920500000        49.2574204552702     
   115.655344500000        13.9517920500000        49.2789393206127     
   115.655194000000        13.9682199000000       0.512474516333580     
   115.655546500000        13.9682199000000       0.515005578105546     
   115.655396000000        13.9846477500000        47.8344603810012     
   115.655601000000        14.0010756000000       0.111638349564821     
   115.655243000000        14.0010756000000       0.114732105423878     
   115.655086500000        14.0175034500000        46.4590442431758     
   115.655447500000        14.0175034500000        46.5536685616606     
   115.655291000000        14.0339313000000       0.515755711853441     
   115.655808000000        14.0175034500000        46.5566479629792     
   115.655654500000        14.0339313000000       0.514371590392795     
   115.655498500000        14.0503591500000        46.5536685616581     
   115.655864500000        14.0503591500000        46.5566503997068     
   115.655708500000        14.0667870000000       0.269854993996032     
   115.655132000000        14.0503591500000        46.4590462013839     
   115.655339500000        14.0667870000000       0.269854993996032     
   115.656262500000        14.0667870000000       0.539455432244938     
   115.656200000000        14.0339313000000        1.03220126440756     
   115.656598000000        14.0503591500000        46.5848457647462     
   115.656530000000        14.0175034500000        46.5848457647487     
   115.655978500000        14.1160705500000        17.2166865885573     
   115.656387500000        14.1324984000000       0.398770343571013     
   115.656325000000        14.0996427000000       0.285762266829175     
   115.656734000000        14.1160705500000        17.2150796519270     
   115.655921500000        14.0832148500000        23.9840494152123     
   115.656666000000        14.0832148500000        23.9668532065775     
   115.655177500000        14.0832148500000        23.9882690114925     
   115.655549500000        14.0832148500000        24.0278737331309     
   115.655387500000        14.0996427000000       0.142611267704731     
   115.655762500000        14.0996427000000       0.142747846907893     
   115.655600500000        14.1160705500000        17.2137257241576     
   115.655816500000        14.1324984000000       0.199647175956487     
   115.655223000000        14.1160705500000        17.2150731058527     
   115.655436000000        14.1324984000000       0.199104611031024     
   115.657001500000        14.0667870000000       0.539778699454316     
   115.656927500000        14.0339313000000        1.03209892996083     
   115.657331000000        14.0503591500000        46.6443374620994     
   115.657251000000        14.0175034500000        46.6443374621019     
   115.657740000000        14.0667870000000       0.539053577350626     
   115.657654500000        14.0339313000000        1.03271287285587     
   115.658063500000        14.0503591500000        46.6721244563951     
   115.657972500000        14.0175034500000        46.6721244563977     
   115.657490000000        14.1160705500000        17.2178490596140     
   115.657910500000        14.1324984000000       0.398796686528802     
   115.657825000000        14.0996427000000       0.286657445223574     
   115.658245500000        14.1160705500000        17.2158482168373     
   115.657410500000        14.0832148500000        23.9984550496085     
   115.658154500000        14.0832148500000        23.9987134867283     
   115.657149000000        14.1324984000000       0.399320729472099     
   115.657075000000        14.0996427000000       0.286267184205519     
   115.656870500000        14.1817819500000        7.83049892311871     
   115.657297000000        14.1982098000000       0.186850306580588     
   115.657222500000        14.1653541000000       0.168991688646145     
   115.657649000000        14.1817819500000        7.82640504486679     
   115.656802000000        14.1489262500000        17.2150796519279     
   115.657569500000        14.1489262500000        17.2178477916069     
   115.658081000000        14.1982098000000       0.186752477235433     
   115.657995500000        14.1653541000000       0.169222080446814     
   115.658427500000        14.1817819500000        7.82060807285029     
   115.658336500000        14.1489262500000        17.2158482168382     
   115.657808000000        14.2474932500000        10.4975913456217     
   115.658251500000        14.2639211000000       0.256035022758857     
   115.658166000000        14.2310654000000       0.256549993315175     
   115.658609500000        14.2474932500000        10.5893994296348     
   115.657728500000        14.2146376000000        10.4975586221200     
   115.658518500000        14.2146376000000        10.5893671998600     
   115.657007000000        14.2474932500000        12.8128539019434     
   115.657444500000        14.2639211000000       0.314707979235148     
   115.657370500000        14.2310654000000       0.260751537323031     
   115.656939000000        14.2146376000000        10.7763101361447     
   115.655268500000        14.1489262500000        17.2150723802524     
   115.655651500000        14.1489262500000        17.2137257241586     
   115.655484000000        14.1653541000000       8.428044880654571E-002
   115.656035500000        14.1489262500000        17.2166865885582     
   115.655870500000        14.1653541000000       8.450817114261881E-002
   115.655702500000        14.1817819000000        7.83600535705285     
   115.656092500000        14.1817819000000        7.83495695440749     
   115.655924500000        14.1982097000000       9.372972629647140E-002
   115.655313500000        14.1817819000000        7.83548207824944     
   115.655532000000        14.1982097000000       9.349122826239710E-002
   115.656513000000        14.1982097500000       0.186957384992123     
   115.656450000000        14.1653541000000       0.168602541203321     
   115.656205500000        14.2474932500000        19.4644071120641     
   115.656637500000        14.2639211000000       0.478083038910749     
   115.656575000000        14.2310654000000       0.279595316232016     
   115.656149000000        14.2146375500000        11.5405944408850     
   115.655359000000        14.2146375500000        22.0172462192098     
   115.655754000000        14.2146375500000        13.6157253513678     
   115.655581000000        14.2310654000000       0.266707311263334     
   115.655978500000        14.2310654000000       0.164520500084592     
   115.655805500000        14.2474932500000        33.7421568814140     
   115.656032500000        14.2639211000000       0.413872565215705     
   115.655404500000        14.2474932500000        80.4715056206177     
   115.655629000000        14.2639211000000       0.989492166602615     
   115.652200000000        14.0175034500000        53311.4716060259     
   115.652561000000        14.0175034500000        32499.1452826164     
   115.652382000000        14.0339313000000        571.689958461955     
   115.652921500000        14.0175034500000        6642.09604630974     
   115.652745500000        14.0339313000000        347.613641166517     
   115.652566500000        14.0503591500000        31463.0568652820     
   115.652933000000        14.0503591500000        6648.62639050300     
   115.652754000000        14.0667870000000        337.341368330136     
   115.652200000000        14.0503591500000        51602.4004615265     
   115.652384500000        14.0667870000000        532.843217219633     
   115.653282500000        14.0175034500000        1202.63440405158     
   115.653109000000        14.0339313000000        73.5860999854859     
   115.653643500000        14.0175034500000        252.318652688903     
   115.653473000000        14.0339313000000        13.3236809589389     
   115.653299500000        14.0503591500000        1202.63440405151     
   115.653666000000        14.0503591500000        252.318647429804     
   115.653492500000        14.0667870000000        5.48385518766695     
   115.653123500000        14.0667870000000        74.6702390882119     
   115.652944500000        14.0832148500000        6648.62631967482     
   115.653316500000        14.0832148500000        803.444917931959     
   115.653137500000        14.0996427000000        59.7440553864366     
   115.653688500000        14.0832148500000        210.717466899972     
   115.653512500000        14.0996427000000        9.17015324276347     
   115.653333500000        14.1160705500000        803.444917931915     
   115.653711500000        14.1160705500000        210.717466899960     
   115.653532500000        14.1324984000000        4.18648902309732     
   115.652955500000        14.1160705500000        5234.48765498218     
   115.653151500000        14.1324984000000        53.8746863472514     
   115.652200000000        14.0832148500000        47444.2734192560     
   115.652572000000        14.0832148500000        29955.6404868775     
   115.652387500000        14.0996427000000        486.744222277455     
   115.652762500000        14.0996427000000        295.931665916781     
   115.652578000000        14.1160705500000        25928.1125275982     
   115.652771000000        14.1324984000000        268.685870559273     
   115.652200000000        14.1160705500000        42646.1923830746     
   115.652390500000        14.1324984000000        437.466091766664     
   115.654004000000        14.0175034500000        68.6834528137949     
   115.653836500000        14.0339313000000        2.78769432647557     
   115.654365000000        14.0175034500000        46.7870322315215     
   115.654200000000        14.0339313000000       0.760926345990621     
   115.654032500000        14.0503591500000        68.6834546271144     
   115.654399000000        14.0503591500000        46.7870322315189     
   115.654231500000        14.0667870000000       0.349087821753866     
   115.653862000000        14.0667870000000        1.22936436764462     
   115.654725500000        14.0175034500000        46.2850657923584     
   115.654563500000        14.0339313000000       0.516917417882777     
   115.654927000000        14.0339313000000       0.514707531495598     
   115.654765000000        14.0503591500000        46.2850674859756     
   115.654970000000        14.0667870000000       0.270140377748918     
   115.654600500000        14.0667870000000       0.268780776780849     
   115.654433000000        14.0832148500000        23.9172048525158     
   115.654805000000        14.0832148500000        23.9322143957750     
   115.654637500000        14.0996427000000       0.142825450940298     
   115.655012500000        14.0996427000000       0.142317167582048     
   115.654845000000        14.1160705500000        17.2124482713213     
   115.655055500000        14.1324984000000       0.199628570539870     
   115.654467000000        14.1160705500000        17.2145430853150     
   115.654674500000        14.1324984000000       0.199622513104497     
   115.654061000000        14.0832148500000        40.0988229452992     
   115.653887500000        14.0996427000000        2.40503263443643     
   115.654262500000        14.0996427000000       0.457669541166248     
   115.654089000000        14.1160705500000        40.0988229452970     
   115.654293500000        14.1324984000000       0.268449310181516     
   115.653913000000        14.1324984000000        1.01467865796322     
   115.653734000000        14.1489262500000        133.572459017167     
   115.654117500000        14.1489262500000        26.5404876214167     
   115.653938500000        14.1653541000000        1.57332000388834     
   115.654501000000        14.1489262500000        17.2145430853159     
   115.654325000000        14.1653541000000       0.311806603756041     
   115.654146000000        14.1817819000000        26.5404061418324     
   115.654535000000        14.1817819000000        7.91930543379226     
   115.654356000000        14.1982097000000       0.116409532819826     
   115.653756500000        14.1817819000000        133.572055258680     
   115.653964000000        14.1982097000000       0.513605960630175     
   115.654885000000        14.1489262500000        17.2124482713222     
   115.654711500000        14.1653541000000       8.739302937515200E-002
   115.655098000000        14.1653541000000       8.425003893041567E-002
   115.654924500000        14.1817819000000        7.84636928086280     
   115.655140000000        14.1982097000000       9.361492686964791E-002
   115.654748000000        14.1982097000000       9.448514310778459E-002
   115.654569000000        14.2146375500000        52.0488278030556     
   115.654964000000        14.2146375500000        14.9861412957279     
   115.654785000000        14.2310654000000       0.630497063647408     
   115.655183000000        14.2310654000000       0.266707311272857     
   115.655004000000        14.2474932500000        34.5683670892197     
   115.655225500000        14.2639211000000       0.987042928572673     
   115.654603500000        14.2474932500000        185.847073478932     
   115.654822500000        14.2639211000000        2.27955356649608     
   115.653779500000        14.2146375500000        55.5494451020424     
   115.654174500000        14.2146375500000        19.5426656599426     
   115.653990000000        14.2310654000000       0.672902228037782     
   115.654387500000        14.2310654000000       0.628912900152411     