 TITLE = "Adapted Mesh"
 VARIABLES = "X", "Y"
 ZONE T = "Domain", N=       16672 E=       30136 
 DATAPACKING=POINT, ZONETYPE=FEQUADRILATERAL
   115.652200000000        13.7382300000000     
   115.652200000000        14.7896122899470     
   115.652200000000        16.1119466301946     
   115.652200000000        17.7762056196718     
   115.652200000000        19.8707748919024     
   115.652200000000        22.5069598288973     
   115.652200000000        25.8246913631930     
   115.652200000000        30.0000000000000     
   115.662200000000        13.7382299995359     
   115.668018825858        14.7896122892128     
   115.675337223113        16.1119466291208     
   115.684547985713        17.7762056181705     
   115.696140280880        19.8707748898631     
   115.710730121936        22.5069598261809     
   115.729091951041        25.8246913596245     
   115.752200000000        29.9999999860769     
   115.673399828472        13.7381680140919     
   115.685735639483        14.7895142355183     
   115.701250516132        16.1118032120201     
   115.720777174854        17.7760051077507     
   115.745352641767        19.8705025240864     
   115.776282854550        22.5065970246292     
   115.815209617297        25.8242147414576     
   115.864198284721        29.9993801212521     
   115.685942965079        13.7380208405238     
   115.705577408853        14.7892814242136     
   115.730271851153        16.1114626932616     
   115.761351695230        17.7755290309168     
   115.800467536330        19.8698558393064     
   115.849697986057        22.5057356159590     
   115.911656241885        25.8230830951912     
   115.989629650791        29.9979083739534     
   115.699989795288        13.7377584865577     
   115.727797844947        14.7888664110430     
   115.762772315610        16.1108556790542     
   115.806790361521        17.7746803687072     
   115.862189702815        19.8687030486325     
   115.931914254552        22.5042000550299     
   116.019665059956        25.8210658043834     
   116.130097952880        29.9952848212987     
   115.715719485094        13.7373423420753     
   115.752680367332        14.7882081193327     
   115.799166449865        16.1098928363082     
   115.857672739635        17.7733342251701     
   115.931306401640        19.8668744981234     
   116.023980320791        22.5017643563534     
   116.140613713805        25.8178659883049     
   116.287394850944        29.9911233619440     
   115.733332011404        13.7367228763120     
   115.780541315993        14.7872281972284     
   115.839916944947        16.1084595645914     
   115.914645714580        17.7713303782630     
   116.008696336946        19.8641525482116     
   116.127066652044        22.4981386157658     
   116.276039864877        25.8131027952463     
   116.463520114043        29.9849286880627     
   115.753050336998        13.7358367414360     
   115.811733391872        14.7858264358984     
   115.885539674818        16.1064092946166     
   115.978430526045        17.7684639105169     
   116.095339213459        19.8602588467511     
   116.242478252190        22.4929520576442     
   116.427657917501        25.8062891313764     
   116.660703369991        29.9760673211394     
   115.775122705272        13.7346031340164     
   115.846649286874        14.7838750138021     
   115.936609005763        16.1035550696879     
   116.049830191411        17.7644734391160     
   116.192325819631        19.8548383412030     
   116.371668092851        22.4857317385317     
   116.597376663580        25.7968036833565     
   116.881427052747        29.9637312266430     
   115.799825009498        13.7329192305196     
   115.885725431758        14.7812112761823     
   115.993763278197        16.0996589847086     
   116.129737169839        17.7590263506510     
   116.300868438246        19.8474392220816     
   116.516250980708        22.4758758310459     
   116.787317500302        25.7838558209852     
   117.128450095023        29.9468921689925     
   115.827463161390        13.7306544701587     
   115.929445742940        14.7776286912037     
   116.057710286885        16.0944189582813     
   116.219141024111        17.7517003072869     
   116.422311253975        19.8374878016325     
   116.678017420766        22.4626201613250     
   116.999832642535        25.7664416369102     
   117.404831613976        29.9242445400459     
   397.317506656835        2.40652275489128     
   3.03055302432014        32.9390312466989     
   115.762366054572        13.6200761288117     
   115.770525505887        13.7153892512816     
   115.836283727141        13.7179704701572     
   116.207526475745        13.5454123944197     
   115.902759818552        13.5624968672511     
   115.855699668542        13.6598471254751     
   115.914659575943        13.7266479888043     
   116.078641698995        13.5638897912913     
   115.989778020282        13.5216414829100     
   115.888278654741        13.6912449711865     
   115.985633572127        13.8282997100831     
   115.978531413204        13.6318419478832     
   115.989379017779        13.3453727226493     
   116.002750962574        13.7722891009024     
   117.496999240639        10.7318108786110     
   115.923998467221        13.4598216581228     
   116.075302684295        13.4335155661669     
   116.124068331894        13.8114883037163     
   117.996992789522        11.2664237738177     
   118.121728414597        10.3709359684579     
   116.756531879168        12.3195641111235     
   116.986626887523        11.2100722805459     
   117.506977651065        9.87529100087063     
   116.329645339588        12.2821501783711     
   116.722249111445        13.1305939654949     
   116.115325089736        13.2181893916559     
   116.322190078567        13.0567607416592     
   116.163616329473        13.6737422482468     
   119.398718427402        10.6976708956420     
   117.203179311226        11.7353494764385     
   116.675354186251        10.4124337702370     
   116.647282493732        11.8172173171927     
   116.084156050029        14.0059501324763     
   117.182396039171        8.95596087459113     
   116.317783311051        13.3543935241417     
   116.122682370093        12.5773470867390     
   116.071151413220        12.9420192682420     
   117.520352536869        12.6147880419644     
   121.436281668172        11.7166448816480     
   120.764434656086        9.49411928606613     
   116.369956109291        11.2183378105095     
   123.183711249196        10.0104192722279     
   116.220653777313        13.8152312587706     
   115.870178808859        9.39034126982774     
   118.860386585241        9.23520671880831     
   116.365483539867        12.7179585615324     
   12.3007171803633        21.2447614110477     
   16.8307077304420        19.3475436876603     
   12.7406680728810        16.2047107826701     
   21.4305311174122        17.8001651977133     
   17.5264478720682        13.7064015822824     
   119.376309646232        12.8597436297407     
   121.272616778660        14.1596522414336     
   122.922235715881        16.1391702625076     
   125.178032402831        12.7786920630863     
   126.324853896742        18.6297398054341     
   387.568272914151        17.6245359515703     
   383.141913191165        17.4842529495268     
   385.776174635720        13.5049758312509     
   381.155301705237        13.1523076525082     
   378.394169128126        17.3537241882869     
   376.315145886533        13.0315234689944     
   373.512448422889        17.2732272706808     
   371.395904224092        12.9622417867569     
   368.571750461184        17.2200376451609     
   366.436559097122        12.9174263904565     
   363.602641693312        17.1861979034529     
   361.457393881273        12.8900613639818     
   358.619867466846        17.1662074056992     
   356.468974618360        12.8745395431073     
   353.630810514824        17.1551551662909     
   351.476488376901        12.8662743238416     
   348.639033115981        17.1494052724180     
   346.482329950117        12.8621302185401     
   343.646160425246        17.1465952300318     
   341.487536502150        12.8601786287294     
   338.652883146375        17.1453091355781     
   336.492523980452        12.8593177486403     
   333.659470941785        17.1447589262589     
   331.497444637060        12.8589626244116     
   328.666019403524        17.1445391211262     
   326.502348460616        12.8588257933142     
   323.672558715923        17.1444572050038     
   321.507249613106        12.8587766158700     
   318.679096943249        17.1444287647523     
   316.512151019277        12.8587605210696     
   313.685635226166        17.1444200080015     
   311.517044336080        12.8587722107044     
   308.692154154398        17.1444304148211     
   306.521719204727        12.8590589689418     
   303.698269407213        17.1445368115639     
   301.523536436597        12.8611905643233     
   298.700170406944        17.1441509455136     
   296.503967638321        12.8648064802094     
   293.678018778222        17.1350863136663     
   291.385538199916        12.8237494760053     
   288.585742163916        17.1030929298718     
   285.930935424338        12.6223495178829     
   283.502505514025        17.1544591304155     
   280.880764075383        13.1271772322700     
   278.522400357375        17.2303857795147     
   276.090855078149        13.1414598869934     
   273.625644491768        17.1610564676316     
   271.536573447366        12.6831959401242     
   268.705178882818        17.1183937562171     
   266.520380938594        12.8890878051094     
   263.666437006938        17.1746587925121     
   261.243917618772        12.9584450205409     
   258.574137796832        17.2972289371281     
   256.249490788655        13.6759155177237     
   253.325788714306        17.2152468059857     
   251.525958642025        12.7000160824951     
   248.213775530712        17.4191715147233     
   246.551355286908        13.0355832665113     
   243.364633465726        17.0867132174927     
   240.542470317157        13.5483878824730     
   238.275052279059        17.3875809134189     
   235.830419949452        13.7074158545038     
   233.182697443510        17.3875453922187     
   231.160061005916        12.8035454122480     
   228.260560643382        17.4507670256699     
   226.707560107758        13.3280160754105     
   223.184830401726        17.4796876239763     
   221.620312476925        12.8027924769673     
   218.325377471262        16.9113839758304     
   215.363248126696        12.9096109905790     
   213.352781284057        17.1498043787031     
   211.159380829003        13.6053801616674     
   208.490380325152        16.9618558262612     
   205.312829396021        13.4776656058674     
   203.684691559197        16.4820239339611     
   200.977406681294        13.5395245771248     
   198.337679798056        16.4341627386074     
   195.406330423802        12.3453265124184     
   193.208469392501        16.9016943836219     
   190.504256494601        12.7047996884872     
   188.284166095193        17.1615605523373     
   186.059272951472        13.5792809812995     
   183.252758998439        17.0070927317371     
   180.160373644695        14.0826961540234     
   178.431000655832        17.6455470982219     
   175.328580973169        12.8286774188291     
   173.733196266884        17.0837982538531     
   171.682338481196        11.5749400233172     
   168.819984726386        16.4950831628428     
   167.192977480538        12.5373886444425     
   163.794403738791        16.5723879305851     
   161.141698492813        12.4128330680036     
   158.671662629585        16.9932416448512     
   156.278434102789        12.8658376942490     
   153.787863084123        17.2030997113981     
   151.678224897744        13.5353529110760     
   148.979598055795        16.9237248023060     
   146.534292514401        13.9217650885079     
   144.892903489354        17.0369849492704     
   141.767627952616        12.9956573089411     
   137.207013967045        12.8685942559747     
   131.684311839712        14.2877477462295     
   116.438158730880        13.6305070990436     
   122.275706158158        7.82705926468359     
   117.405691969489        7.79096571223861     
   114.326751445223        10.1535545475073     
   115.872138193544        12.7313384133501     
   115.659885445615        10.7840232150429     
   112.456423390029        7.70598476300766     
   107.416795777247        8.15532349397463     
   111.157374178887        9.85708068057299     
   99.5147747407659        6.04275986492338     
   32.7803286290230        11.9259320704364     
   28.4064560777530        13.4612211574701     
   25.3849228149141        16.8437854271290     
   23.0671651397622        13.2402964861300     
   12.9892812883864        11.9272922057345     
   7.45854895132494        27.7435209305289     
   7.94117619954861        23.1310937067220     
   11.7732312980943        26.1265148816037     
   16.2488832886876        24.4282341133897     
   8.27348478081659        18.2296197173083     
   20.7417551669762        22.6978188893918     
   118.817004201452        14.7860180954593     
   120.235129480150        16.4039280387606     
   121.666190120962        18.6626782845492     
   122.673995530030        21.8794005101580     
   126.773016331668        23.8163848346544     
   390.349735632650        21.7159605221864     
   385.346869088732        21.6962228388816     
   390.633094906219        14.9131225472583     
   389.863471743622        9.89271237610560     
   384.073422205305        8.80029655200368     
   380.525731251730        21.6199317919457     
   379.138992715764        8.74045042194007     
   375.644808301165        21.5542543012418     
   374.228277363011        8.68175170528411     
   370.711553407819        21.5062216908218     
   369.274851859760        8.63747525367210     
   365.748457627100        21.4736709922753     
   364.297532389408        8.60834625399785     
   360.769875584554        21.4534846042811     
   359.309001718989        8.59113971600253     
   355.783777909845        21.4418680555706     
   354.315525776731        8.58172997935024     
   350.794260618820        21.4355938632996     
   349.319992648218        8.57689376483249     
   345.803292774991        21.4324107245834     
   344.323661203242        8.57455366203113     
   340.811757096493        21.4308984126759     
   339.327045826945        8.57349045386212     
   335.820018545162        21.4302270955175     
   334.330340197036        8.57303794088564     
   330.828214998194        21.4299489493096     
   329.333610237359        8.57285780862121     
   325.836393552404        21.4298414556857     
   324.336875611443        8.57279083898676     
   320.844568392651        21.4298027450209     
   319.340141006036        8.57276777483791     
   315.852743022561        21.4297897730594     
   314.343404962547        8.57276948087510     
   310.860917335555        21.4297859232068     
   309.346604664934        8.57298924497328     
   305.869065446113        21.4297850098128     
   304.348787833814        8.57571504173572     
   300.876791617385        21.4296877841643     
   299.342132130958        8.59356190242399     
   295.881282644286        21.4283974884540     
   294.292025750649        8.64570752788180     
   290.874285294415        21.4234961312352     
   289.110511396345        8.53575098683659     
   285.859255056231        21.4261300753972     
   284.919767976975        8.87650812225491     
   280.856710242207        21.4414801577391     
   279.485291715787        8.51527572895680     
   275.876237423310        21.4418507314346     
   274.634099609571        8.71419817385141     
   270.904325076362        21.4277346262776     
   269.617253764678        8.46751796023880     
   265.915541502906        21.4296708889382     
   264.381363134618        9.03241805580544     
   260.897823880379        21.4528193163455     
   259.458097825842        8.38416416285430     
   255.836144325971        21.4661762855682     
   254.215461898497        8.59501572612357     
   250.764529468044        21.4889427729650     
   248.868139331996        8.57058396174834     
   245.756842326911        21.4630198252052     
   243.933478380438        9.44464160507221     
   240.757554355618        21.4493568187896     
   239.502571040007        8.42238588150927     
   235.717985558473        21.5025396084506     
   234.532987393928        8.48902823595043     
   230.711649622637        21.5422500133921     
   229.579381212214        8.51432228202963     
   225.723071086011        21.5576031680298     
   224.704619126692        8.73549572215379     
   220.744283433268        21.4497646306407     
   218.943991559848        9.36199797276977     
   215.781141545271        21.3651600306557     
   214.284982404528        9.72053147997832     
   210.810934301647        21.3448146430115     
   208.986013148913        8.00144223886242     
   205.851841468855        21.2417246767753     
   204.391527071577        8.61296865928490     
   200.825660130744        21.1724771268778     
   200.362482770671        8.95982491098231     
   195.755910928406        21.2470404928786     
   194.120053435090        9.01855200352196     
   190.741834268326        21.3674623789514     
   188.889628204543        9.73584616652295     
   185.750959973687        21.4050723260408     
   183.822540358975        7.33604365403018     
   180.796756004473        21.4850136412085     
   179.121715787123        8.65907071243873     
   175.903991323425        21.4670659616769     
   175.318759024038        8.48770771033004     
   170.987240915697        21.2465831005200     
   170.264314976304        7.79257005802092     
   166.006030428896        21.1536898846838     
   164.158621653308        9.18572291337724     
   160.998752623079        21.2650391929146     
   158.788592001638        8.99261409660510     
   156.018626660180        21.3939175390307     
   154.379338154152        8.53000613706804     
   151.052568071231        21.3895472264034     
   149.610081769215        8.10100532885943     
   145.850042005549        21.3135050736947     
   144.286094417948        8.37596425200058     
   141.302572947283        22.7592211156016     
   138.174466135395        16.1721549959891     
   139.499090249788        8.88151317436916     
   135.297880019903        9.13773960159833     
   130.471414310866        9.56491128280762     
   117.280920622699        14.0016283634804     
   124.995697926345        8.04140335204589     
   119.993417862536        7.04249956343418     
   112.532649401166        11.1939746426548     
   113.693715748129        11.4529818306379     
   115.878353453519        11.8539099278103     
   115.125632281238        7.85447352311496     
   114.836916463438        11.6671058104232     
   110.175854489604        7.04015556880235     
   110.090123342798        10.9653271839501     
   111.319766621981        11.2226962946944     
   109.184500410887        10.2994241144629     
   107.004237141610        9.85253322758842     
   104.615376891160        7.64818371174587     
   105.419307265692        9.25785910674127     
   103.797863849155        9.65004636873886     
   102.447956165421        8.55477528886276     
   100.793342719026        8.60966455495031     
   98.7256006379989        8.02420255452759     
   96.0768266971880        7.11448018029483     
   94.3716536805365        7.36849097336625     
   42.9872682702886        7.79503457971961     
   41.8234568703560        12.1713138395297     
   39.7342112704119        8.78307306931995     
   37.2835815692199        13.1667119405024     
   35.0544245388038        8.46311103720580     
   32.9850577932841        16.2035812827418     
   30.2921209427077        8.51680779577917     
   28.9926554206331        18.7585301074633     
   25.3871142556846        8.78989183617805     
   25.0377529429418        20.9604219569732     
   20.2797225346155        8.84134311456816     
   15.3528831846968        8.57950508183951     
   8.52829004924296        12.7708225853981     
   10.8033670942248        8.37281290869962     
   6.95064925744885        8.30692009919257     
   3.49559113327137        29.3675709063764     
   6.66518683026100        31.9968906587749     
   3.81968716013965        25.0263198747615     
   11.0576706152143        30.8132098600050     
   4.02375155824534        20.4161301725285     
   15.6347336584067        29.3982313301349     
   20.2154264439362        27.7530303148290     
   117.850559650886        16.4283207024291     
   118.626052015597        18.3183810430253     
   119.293881814019        20.7756413196089     
   119.520837416057        23.3576120746208     
   121.857914669565        25.8276676096363     
   392.482349735031        26.2611408449922     
   396.552001145417        26.8642829882628     
   395.266006088021        23.0548513573382     
   387.670924158168        25.9195558884494     
   395.285049583261        17.8249909873426     
   396.660153720350        3.60479116454246     
   392.691049924389        4.28798854879527     
   395.903750295018        7.80916542737522     
   386.032541874362        4.39086242391051     
   396.286291614995        12.7100698014590     
   382.746479830836        25.8388111848018     
   381.899874095674        4.38312905199540     
   377.818695664208        25.7974609173773     
   377.072945698291        4.36016748742110     
   372.869299233913        25.7677515936809     
   372.123452399196        4.33396144763308     
   367.901317063699        25.7464854985852     
   367.143035612513        4.31380144963613     
   362.922023561480        25.7325818632820     
   362.151881842862        4.30101189242353     
   357.936779546707        25.7242389088760     
   357.156377036656        4.29374861096713     
   352.948677577723        25.7195640992026     
   352.159084860426        4.28991226907864     
   347.959303202003        25.7171047466778     
   347.161089592183        4.28800520121450     
   342.969404964832        25.7158925910483     
   342.162837047849        4.28711314732834     
   337.979308774998        25.7153344086935     
   337.164499274535        4.28672155553187     
   332.989144674097        25.7150945790927     
   332.166136932912        4.28656056567920     
   327.998959906277        25.7149984826389     
   327.167769094513        4.28649867890407     
   323.008769892170        25.7149625976045     
   322.169400763014        4.28647649582941     
   318.018578989697        25.7149501224336     
   317.171032609371        4.28647107751493     
   313.028388151462        25.7149460910226     
   312.172655809891        4.28653259369220     
   308.038196809650        25.7149447817845     
   307.174104599660        4.28760379689588     
   303.047984741193        25.7149376859029     
   302.173816375445        4.29825157870861     
   298.057531812423        25.7148319567429     
   297.166012764087        4.36639357085126     
   293.065909753285        25.7143067712680     
   292.172121213986        4.69752268342425     
   288.072602388604        25.7140806189142     
   287.330133773844        4.07663431140721     
   283.079515551507        25.7155970543674     
   282.217294394989        4.29148796932044     
   278.089178097026        25.7169235711562     
   277.179186618766        4.42216050624178     
   273.101419823724        25.7156717549191     
   272.239627197863        3.87804914637131     
   268.112998821693        25.7145443882136     
   267.205993410915        4.73655859461803     
   263.119875950812        25.7167305686560     
   262.180272842111        4.14802177609397     
   258.117131445574        25.7206131452455     
   257.104155821198        4.29182027534682     
   253.105478669079        25.7258525112112     
   251.810155635989        4.29389852081108     
   248.098151258433        25.7255911358409     
   246.515326934243        3.66851411490223     
   243.096961217293        25.7187595291826     
   241.796614576135        4.63572895022492     
   238.088354627205        25.7224341479444     
   237.126496873905        4.35945342176067     
   233.082006923260        25.7391009062927     
   232.192386295584        4.30403955243732     
   228.092423681187        25.7529466348496     
   227.132967326097        4.41417660318033     
   223.109865894499        25.7392520810803     
   222.065448517245        4.76758758470649     
   218.124761704654        25.7054862484316     
   217.347238761389        3.83941712881455     
   213.134592749319        25.6833697008832     
   212.151857696089        4.11450402159843     
   208.142482103791        25.6663822991633     
   207.422978738411        3.87199577679174     
   203.146584061910        25.6505973893860     
   202.748089941847        4.76550235314423     
   198.141225965368        25.6554062307316     
   197.430571625217        4.83708588959475     
   193.136658571238        25.6795502930801     
   192.321362070649        3.79698292974407     
   188.140599162856        25.7000163943579     
   187.429092890581        3.66458657581401     
   183.156418916248        25.7173172796051     
   183.093676025817        3.88802006345244     
   178.191146755778        25.7206334643084     
   177.583140676374        4.08390238806570     
   173.231357287156        25.6737681739809     
   172.885911516855        4.49294130888025     
   168.256167843327        25.6211900082422     
   168.731516989333        4.99724621518895     
   163.268465434429        25.6305526464406     
   161.479668763746        6.37420010508688     
   158.283657368364        25.6780651193768     
   157.116197408592        6.12075227197893     
   153.307717637369        25.7077101323768     
   152.235495443286        4.30771011440723     
   148.349526869690        25.7390443784186     
   147.667455579051        3.84822455405344     
   143.722341986828        26.0020747759195     
   143.045182125753        4.41834521955795     
   138.621930535830        27.3995199206067     
   137.647576577694        4.52969855249341     
   133.517368231880        22.7964501215007     
   132.462440146932        5.19269415361665     
   117.133400248922        15.2089709612923     
   116.351702852885        14.0352920620939     
   127.558154312297        4.26441320488154     
   122.540388045702        4.07218924493596     
   113.003207269118        12.5146492568872     
   117.521567822314        4.45228747450644     
   114.123354578792        12.5864934004313     
   115.175844465074        12.8784637980131     
   112.601420897810        4.69913050835404     
   111.786382743954        12.4405250942688     
   110.401396221554        12.3554873769126     
   109.240448575571        11.8887369342144     
   107.277690722476        11.9434329054264     
   108.593655322235        3.07258510324759     
   105.474155471114        11.6370569850442     
   104.075699040443        11.4281798252400     
   102.899245272633        10.7753985940596     
   103.833499667628        4.03417041151289     
   101.212796105812        10.5580166603394     
   99.4580459400760        10.8956429967294     
   96.3762243572134        10.0948727409138     
   96.4674945621638        4.92656384243767     
   94.2310596520383        9.24519760725732     
   92.2415193163896        8.37824151231581     
   92.2509349316010        4.81439323004574     
   89.3910944594618        8.03284555667525     
   86.6491758524846        7.80592274947862     
   87.3795058882300        4.17202567002001     
   84.0664078744719        6.42979071090185     
   83.4188301740178        3.13471783520960     
   80.9472718325225        5.08947922449507     
   77.0756000124764        4.33082029036073     
   72.7736328262275        4.13424774012259     
   68.2310537507586        4.27995858118110     
   62.9992324268538        4.78146165199737     
   59.6318521460038        7.71674827776881     
   57.2541400869737        4.17631873247272     
   55.5272214263592        8.76205307914124     
   52.7439737532876        4.82060266453573     
   49.9355225075469        9.30045383650300     
   47.8630757749200        4.73406019401471     
   44.9370643915671        12.9866544963462     
   42.0855914442413        3.54098155751991     
   41.3331258182868        16.2307469781346     
   37.8811679343214        4.41832817041036     
   37.3195742978928        18.6859389799618     
   32.6123288184614        4.26283885962552     
   33.1636628820934        21.3368098274950     
   27.6483294020173        4.31842234776992     
   28.9902649848311        23.7664384998829     
   22.6649651019529        4.38224116372679     
   24.6908893821725        25.8941982938729     
   17.6881704687859        4.34733150064081     
   4.10971511979672        15.6100383443198     
   12.8350054073386        4.27886169175199     
   3.83475428445800        10.7437480507169     
   8.16812434876978        4.37227844933884     
   3.42177205436493        5.27471022594876     
   115.821645777885        13.2580507074849     
  0.000000000000000E+000  0.000000000000000E+000
  0.000000000000000E+000   36.0000000000000     
   400.000000000000        30.0000000000000     
   400.000000000000       0.000000000000000E+000
  0.000000000000000E+000   4.50000000000000     
  0.000000000000000E+000   9.00000000000000     
  0.000000000000000E+000   13.5000000000000     
  0.000000000000000E+000   18.0000000000000     
  0.000000000000000E+000   22.5000000000000     
  0.000000000000000E+000   27.0000000000000     