 TITLE = "Edge Error"
 VARIABLES = "X", "Y","Estimate1" 
 ZONE T = "Domain", I=       29344  DATAPACKING=POINT, ZONETYPE=ORDERED
   115.652356500000        13.7382300000000        662.384708974400     
   115.652200000000        13.7546578500000        116801.395820504     
   115.652515500000        13.7546578500000        88635.5401311956     
   115.652359000000        13.7710857000000        1130.48402169955     
   115.652669000000        13.7382300000000        660.268463903185     
   115.652830500000        13.7546578500000        63970.6633131618     
   115.652677000000        13.7710857000000        857.875541678106     
   115.652521000000        13.7875135500000        88635.5405827858     
   115.652842000000        13.7875135500000        63970.6639946448     
   115.652686000000        13.8039414000000        106.962522148183     
   115.652200000000        13.7875135500000        116801.395820497     
   115.652362000000        13.8039414000000        123.160298143855     
   115.652981000000        13.7382300000000        610.018165693985     
   115.653146000000        13.7546578500000        64239.0283806812     
   115.652995500000        13.7710857000000        621.098940321206     
   115.653293500000        13.7382300000000        611.973352145378     
   115.653461500000        13.7546578500000        54055.4573984315     
   115.653314000000        13.7710857000000        592.433594221260     
   115.653163500000        13.7875135500000        61210.1353671433     
   115.653484000000        13.7875135500000        54055.4562717490     
   115.653333500000        13.8039414000000        108.851428739649     
   115.653010000000        13.8039414000000        107.940650312241     
   115.652853500000        13.8203692500000        10083.8347601997     
   115.653180500000        13.8203692500000        10945.8830224586     
   115.653024000000        13.8367971000000        17.7089170674192     
   115.653506500000        13.8203692500000        11072.4172242633     
   115.653353500000        13.8367971000000        17.0949417148401     
   115.653197500000        13.8532249500000        1702.47643718645     
   115.653529500000        13.8532249500000        1707.19274804645     
   115.653373500000        13.8696528000000        8.10520528460910     
   115.652864500000        13.8532249500000        1763.14817914157     
   115.653038000000        13.8696528000000        7.88854542587170     
   115.652200000000        13.8203692500000        12489.2524927395     
   115.652527000000        13.8203692500000        10846.6932020871     
   115.652365000000        13.8367971000000        20.8149071197072     
   115.652694500000        13.8367971000000        17.6552536832631     
   115.652532500000        13.8532249500000        1694.74613614533     
   115.652702500000        13.8696528000000        8.96361244450017     
   115.652200000000        13.8532249500000        2072.38892073351     
   115.652367500000        13.8696528000000        13.7311910977805     
   115.653606000000        13.7382300000000        496.877779544411     
   115.653776500000        13.7546578500000        52324.5949388836     
   115.653632000000        13.7710857000000        523.185664602790     
   115.653918500000        13.7382300000000        559.857700105656     
   115.654092000000        13.7546578500000        58768.4552271315     
   115.653950000000        13.7710857000000        505.743334770651     
   115.653805000000        13.7875135500000        52253.3248989054     
   115.654126000000        13.7875135500000        51436.7608324738     
   115.653981000000        13.8039414000000        108.227456386385     
   115.653657000000        13.8039414000000        109.188430061368     
   115.654231000000        13.7382300000000        586.871133855974     
   115.654407000000        13.7546578500000        61801.5262906068     
   115.654268000000        13.7710857000000        497.839984731017     
   115.654543500000        13.7382300000000        619.407881815031     
   115.654722500000        13.7546578500000        65019.4844415557     
   115.654586000000        13.7710857000000        483.826053647296     
   115.654447000000        13.7875135500000        49988.8536197714     
   115.654768000000        13.7875135500000        48686.9748085070     
   115.654629000000        13.8039414000000        101.405025700590     
   115.654305000000        13.8039414000000        105.085055917749     
   115.654160000000        13.8203692500000        10656.3114829198     
   115.654487000000        13.8203692500000        10283.1344813165     
   115.654342000000        13.8367971000000        17.6074058848301     
   115.654813500000        13.8203692500000        9870.20125306728     
   115.654671500000        13.8367971000000        17.7285446837526     
   115.654527000000        13.8532249500000        1753.04264929279     
   115.654859000000        13.8532249500000        1770.46904691827     
   115.654714500000        13.8696528000000        9.26872945816308     
   115.654194000000        13.8532249500000        1735.40253466379     
   115.654379000000        13.8696528000000        9.15615118258981     
   115.653833500000        13.8203692500000        10974.9698267371     
   115.653683000000        13.8367971000000        17.2814907558074     
   115.654012500000        13.8367971000000        17.3774148233995     
   115.653862000000        13.8532249500000        1720.59297583542     
   115.654043500000        13.8696528000000        8.78346946042472     
   115.653708500000        13.8696528000000        8.45244250970403     
   115.653552500000        13.8860806500000        947.366624315191     
   115.653890500000        13.8860806500000        953.671107806140     
   115.653734500000        13.9025085000000        9.89787833091774     
   115.654228000000        13.8860806500000        986.799845434980     
   115.654075000000        13.9025085000000        10.2116761417865     
   115.653919000000        13.9189363500000        953.671082628164     
   115.654262500000        13.9189363500000        986.799876972460     
   115.654106500000        13.9353642000000        7.43835155806894     
   115.653575000000        13.9189363500000        947.366604569251     
   115.653759500000        13.9353642000000        7.15085035540781     
   115.654566500000        13.8860806500000        1028.49483484937     
   115.654415500000        13.9025085000000        10.6744489265874     
   115.654904500000        13.8860806500000        1046.17676509888     
   115.654756500000        13.9025085000000        10.8579620065902     
   115.654606000000        13.9189363500000        1028.49487248315     
   115.654950000000        13.9189363500000        1046.17680919443     
   115.654799500000        13.9353642000000        7.53891898951018     
   115.654453000000        13.9353642000000        7.43649473356486     
   115.654314000000        13.9682199000000        1408.60160310636     
   115.654665500000        13.9680409500000        1404.62807415371     
   115.654526500000        14.0008966500000        7.90012614615494     
   115.655018500000        13.9682199000000        1427.64667524517     
   115.654884500000        14.0008966500000        7.92223053991398     
   115.654706000000        14.0010756000000        4.67550465875937     
   115.653609000000        13.9682199000000        1341.69840241754     
   115.653961000000        13.9680409500000        1346.78175873770     
   115.653810500000        14.0008966500000        7.74353254038821     
   115.654168500000        14.0008966500000        7.76519878870221     
   115.653990000000        14.0010756000000        4.37113056792058     
   115.652200000000        13.8860806500000        1346.71013534954     
   115.652538000000        13.8860806500000        1021.39452356003     
   115.652370500000        13.9025085000000        13.4321627813689     
   115.652876000000        13.8860806500000        948.249935281285     
   115.652711500000        13.9025085000000        10.6007641514988     
   115.652544000000        13.9189363500000        1021.39452356009     
   115.652887500000        13.9189363500000        948.249925179527     
   115.652720000000        13.9353642000000        7.57086435475895     
   115.652200000000        13.9189363500000        1294.20267063980     
   115.652373500000        13.9353642000000        8.49362141315954     
   115.653214500000        13.8860806500000        949.464254505495     
   115.653052500000        13.9025085000000        9.85421912908476     
   115.653393500000        13.9025085000000        9.85421912949542     
   115.653231500000        13.9189363500000        949.464254505546     
   115.653413000000        13.9353642000000        7.06464226147704     
   115.653066500000        13.9353642000000        7.08549004684134     
   115.652904500000        13.9682199000000        1341.77953659003     
   115.653257000000        13.9680409500000        1333.75309078813     
   115.653095000000        14.0008966500000        7.70071484468348     
   115.653453000000        14.0008966500000        7.70071484483637     
   115.653274000000        14.0010756000000        5.35930007957324     
   115.652200000000        13.9682199000000        1608.43733175987     
   115.652552500000        13.9680409500000        1430.00719828499     
   115.652379000000        14.0008966500000        8.90285307133427     
   115.652737000000        14.0008966500000        8.90285307133427     
   115.652558000000        14.0010756000000        6.28783236475538     
   115.654856000000        13.7382300000000        632.830862741691     
   115.655038000000        13.7546578500000        66641.4327504245     
   115.654904500000        13.7710857000000        472.707315370265     
   115.655168500000        13.7382300000000        634.859166812683     
   115.655353500000        13.7546578500000        63745.9517121732     
   115.655223000000        13.7710857000000        457.355653102327     
   115.655089500000        13.7875135500000        47253.9567119989     
   115.655410500000        13.7875135500000        44765.5211342500     
   115.655277000000        13.8039414000000        93.4822902369611     
   115.654953000000        13.8039414000000        97.3329500344968     
   115.655481000000        13.7382300000000        605.335056138219     
   115.655668500000        13.7546578500000        63019.5718682930     
   115.655541000000        13.7710857000000        433.270765741692     
   115.655793500000        13.7382300000000        629.688084596049     
   115.655984000000        13.7546578500000        66098.6808649607     
   115.655859000000        13.7710857000000        410.990114436207     
   115.655731500000        13.7875135500000        42463.4991401086     
   115.656052000000        13.7875135500000        41047.9335174092     
   115.655924500000        13.8039414000000        84.7000992252194     
   115.655601000000        13.8039414000000        89.7293805586687     
   115.655467000000        13.8203692500000        9099.15398494246     
   115.655794000000        13.8203692500000        8615.74614501416     
   115.655660000000        13.8367971000000        18.4511138874980     
   115.656120500000        13.8203692500000        8114.43998503106     
   115.655990000000        13.8367971000000        18.7380803368352     
   115.655856500000        13.8532249500000        1837.04659704542     
   115.656189000000        13.8532249500000        1865.61837781431     
   115.656055500000        13.8696528000000        11.2111609984405     
   115.655523500000        13.8532249500000        1812.02976406349     
   115.655720000000        13.8696528000000        10.6532701011093     
   115.655140500000        13.8203692500000        9479.72155404225     
   115.655001000000        13.8367971000000        17.9691245732241     
   115.655330500000        13.8367971000000        18.1447022968475     
   115.655191500000        13.8532249500000        1789.05720458502     
   115.655384500000        13.8696528000000        10.0860432307549     
   115.655049500000        13.8696528000000        9.57616257903748     
   115.656106000000        13.7382300000000        643.805013627119     
   115.656299000000        13.7546578500000        67797.1731970642     
   115.656177000000        13.7710857000000        397.289204056149     
   115.656418500000        13.7382300000000        672.039620076698     
   115.656615000000        13.7546578500000        70544.4012733378     
   115.656495500000        13.7710857000000        384.950976798920     
   115.656373000000        13.7875135500000        39648.4824066738     
   115.656694500000        13.7875135500000        38675.2304128942     
   115.656572000000        13.8039414000000        75.7445706931880     
   115.656248000000        13.8039414000000        80.0187717040533     
   115.656731000000        13.7382300000000        766.495676392758     
   115.656930000000        13.7546578500000        80717.4303410750     
   115.656814000000        13.7710857000000        436.920059782065     
   115.657043500000        13.7382300000000        768.952393333031     
   115.657245500000        13.7546578500000        79485.1699135990     
   115.657132000000        13.7710857000000        436.920059801591     
   115.657015500000        13.7875135500000        45142.6492075163     
   115.657336500000        13.7875135500000        40752.6926209469     
   115.657220000000        13.8039414000000        66.1298908131702     
   115.656896000000        13.8039414000000        73.2922707070171     
   115.656774000000        13.8203692500000        7432.33332393574     
   115.657100500000        13.8203692500000        6706.02198964534     
   115.656978500000        13.8367971000000        19.4807769930690     
   115.657427500000        13.8203692500000        5229.55061586907     
   115.657308000000        13.8367971000000        17.9339165940962     
   115.657185500000        13.8532249500000        1713.72974850431     
   115.657518500000        13.8532249500000        1785.55649544828     
   115.657396000000        13.8696528000000        9.91433157393517     
   115.656853500000        13.8532249500000        1945.46022747073     
   115.657060500000        13.8696528000000        12.2336285332655     
   115.656447000000        13.8203692500000        7681.00988695597     
   115.656319500000        13.8367971000000        18.9066547630469     
   115.656649000000        13.8367971000000        19.5399890802015     
   115.656521000000        13.8532249500000        1888.12447553339     
   115.656725500000        13.8696528000000        12.2336285327466     
   115.656390500000        13.8696528000000        11.6295366784334     
   115.656257000000        13.8860806500000        1166.61363043242     
   115.656595000000        13.8860806500000        1191.91870587086     
   115.656461500000        13.9025085000000        12.3705551189393     
   115.656933000000        13.8860806500000        1218.11214266488     
   115.656802500000        13.9025085000000        12.6424032763340     
   115.656669000000        13.9189363500000        1191.91870587092     
   115.657012500000        13.9189363500000        1218.11205295711     
   115.656879000000        13.9353642000000        8.46243409425348     
   115.656325000000        13.9189363500000        1166.61363043248     
   115.656532500000        13.9353642000000        8.48689199654628     
   115.657271000000        13.8860806500000        1106.52464718130     
   115.657143500000        13.9025085000000        12.6424032768609     
   115.657609500000        13.8860806500000        994.644954208692     
   115.657484500000        13.9025085000000        11.4842664168354     
   115.657356500000        13.9189363500000        1106.52455954127     
   115.657700500000        13.9189363500000        994.644954208744     
   115.657572500000        13.9353642000000        7.88964505923993     
   115.657225500000        13.9353642000000        8.45349480388276     
   115.657131500000        13.9682199000000        1600.84324090081     
   115.657483500000        13.9680409500000        1485.92980503737     
   115.657389500000        14.0008966500000        7.99114815243155     
   115.657836500000        13.9682199000000        1366.72053280639     
   115.657747500000        14.0008966500000        8.01350722424812     
   115.657569000000        14.0010756000000        5.07154185799270     
   115.656427500000        13.9682199000000        1570.05461660213     
   115.656779500000        13.9680409500000        1598.41354228590     
   115.656674500000        14.0008966500000        8.45632758438345     
   115.657032000000        14.0008966500000        8.46814964261643     
   115.656853500000        14.0010756000000        5.30042347322209     
   115.655242500000        13.8860806500000        1069.35327862052     
   115.655097500000        13.9025085000000        11.0985012863341     
   115.655580500000        13.8860806500000        1093.06461790756     
   115.655438500000        13.9025085000000        11.3445908558287     
   115.655293500000        13.9189363500000        1069.35327862058     
   115.655637500000        13.9189363500000        1093.06461790762     
   115.655492500000        13.9353642000000        7.95774877311937     
   115.655146000000        13.9353642000000        7.62715108601324     
   115.655919000000        13.8860806500000        1124.42076597907     
   115.655779500000        13.9025085000000        11.6700237258835     
   115.656120500000        13.9025085000000        12.1079263553789     
   115.655981500000        13.9189363500000        1124.42083107986     
   115.656186000000        13.9353642000000        8.26702393632358     
   115.655839500000        13.9353642000000        8.18993983551176     
   115.655723000000        13.9682199000000        1506.96138230773     
   115.656075000000        13.9680409500000        1542.48471605995     
   115.655958500000        14.0008966500000        8.36280627553409     
   115.656316500000        14.0008966500000        8.38620523913802     
   115.656138000000        14.0010756000000        5.30783665299155     
   115.655370000000        13.9680409500000        1440.64053639776     
   115.655242500000        14.0008966500000        8.04886534338663     
   115.655600500000        14.0008966500000        8.07138590642223     
   115.655422000000        14.0010756000000        5.08298888191558     
   115.655109500000        14.0339313000000        429.098116536351     
   115.655836500000        14.0339313000000        466.495543963404     
   115.655524000000        14.0667870000000        2.55982321578359     
   115.656564000000        14.0339313000000        487.131458715173     
   115.656262500000        14.0667870000000        3.30290621875490     
   115.655950000000        14.0996427000000        227.926585896613     
   115.656700000000        14.0996427000000        293.692904659889     
   115.656387500000        14.1324984000000        2.95815376109451     
   115.655200500000        14.0996427000000        134.501925217637     
   115.655626500000        14.1324984000000        2.05175956430819     
   115.657291000000        14.0339313000000        465.445675333438     
   115.657001500000        14.0667870000000        3.30290621875490     
   115.658018000000        14.0339313000000        399.585784025177     
   115.657740000000        14.0667870000000        2.73042314552002     
   115.657450500000        14.0996427000000        248.299935411258     
   115.658200000000        14.0996427000000        213.937286090807     
   115.657910500000        14.1324984000000        2.87553906478534     
   115.657149000000        14.1324984000000        2.96204095393766     
   115.656904500000        14.1982097500000        510.866482357564     
   115.657688000000        14.1978065000000        493.552016768050     
   115.657443500000        14.2635178500000        2.13492098007408     
   115.658473000000        14.1982097500000        427.874246613078     
   115.658250500000        14.2635178500000        2.60917600927541     
   115.657848000000        14.2639211000000        3.68650156395658     
   115.655336500000        14.1982097500000        214.419098715606     
   115.656120000000        14.1978065000000        352.159577875279     
   115.655830000000        14.2635178500000        1.86027613814608     
   115.656637000000        14.2635178500000        1.79234979444956     
   115.656234000000        14.2639211000000        2.63327489936693     
   115.652200000000        14.0339313000000        577.070206210733     
   115.652927500000        14.0339313000000        491.853537461517     
   115.652569500000        14.0667870000000        5.27555261017413     
   115.653654500000        14.0339313000000        376.963376708716     
   115.653308000000        14.0667870000000        3.41138041068485     
   115.652950000000        14.0996427000000        310.559392533509     
   115.653700000000        14.0996427000000        90.1084137420578     
   115.653342000000        14.1324984000000        3.60129663720618     
   115.652200000000        14.0996427000000        469.098711479683     
   115.652580500000        14.1324984000000        3.92360552106390     
   115.654382000000        14.0339313000000        401.163775134813     
   115.654046500000        14.0667870000000        1.01337213084791     
   115.654785500000        14.0667870000000        1.51262684137202     
   115.654450000000        14.0996427000000        59.1646649946673     
   115.654865000000        14.1324984000000        1.14988974911901     
   115.654103500000        14.1324984000000       0.554365109246930     
   115.653768500000        14.1982097500000        309.534869665896     
   115.654552000000        14.1978065000000        71.9839530578295     
   115.654217000000        14.2635178500000        2.68549184040001     
   115.655023500000        14.2635178500000        1.86142979766923     
   115.654620500000        14.2639211000000        3.79903643041530     
   115.652200000000        14.1982097500000        683.929775602347     
   115.652984000000        14.1978065000000        751.420422158494     
   115.652603500000        14.2635178500000        6.56356688586288     
   115.653410500000        14.2635178500000        6.56356688580505     
   115.653007000000        14.2639211000000        8.39933023613593     
   115.659814000000        14.1324984000000        9.91685573549908     
   115.661603000000        14.1965983500000        231.791673122409     
   115.660262000000        14.2623097000000        10.3960010659316     
   115.662859500000        14.1324984000000        5.50546113954334     
   115.664745500000        14.1982097500000        215.448873925976     
   115.663489000000        14.2623097000000        7.49159782817499     
   115.661882000000        14.2639211000000        14.7414381003417     
   115.659586500000        14.0667870000000        6.59567050687444     
   115.661200500000        14.0996427000000        133.126555204537     
   115.659359000000        14.0010756000000        17.4156888451792     
   115.660927500000        14.0339313000000        389.938706588750     
   115.662541000000        14.0667870000000        8.05871373702522     
   115.662223000000        14.0010756000000        18.6707978286395     
   115.663836500000        14.0339313000000        428.387913503599     
   115.664200000000        14.0996427000000        179.267937142063     
   115.658439000000        13.9353642000000        28.8270752484630     
   115.659243000000        13.9675044500000        1310.44799651554     
   115.658640500000        14.0003601500000        29.9268179979803     
   115.659825000000        13.9353642000000        28.2553821371442     
   115.660654500000        13.9682199000000        1338.09033894155     
   115.660072500000        14.0003601500000        30.0315740811025     
   115.658336500000        13.9025085000000        41.2621211147762     
   115.659075000000        13.9189363500000        972.317258015072     
   115.658234500000        13.8696528000000        33.9986935492579     
   115.658961500000        13.8860806500000        972.317155785293     
   115.659700000000        13.9025085000000        40.3653782063259     
   115.659575500000        13.8696528000000        33.9365675592788     
   115.660314000000        13.8860806500000        960.479105193715     
   115.660450000000        13.9189363500000        960.479105193767     
   115.661211500000        13.9353642000000        28.6523407807928     
   115.661064000000        13.9025085000000        40.1534028707910     
   115.661825500000        13.9189363500000        967.216720487484     
   115.660916000000        13.8696528000000        35.0014670967814     
   115.661666000000        13.8860806500000        967.216863394209     
   115.662427500000        13.9025085000000        41.5215481847166     
   115.662256500000        13.8696528000000        38.1839423169364     
   115.663018000000        13.8860806500000        1000.91009598444     
   115.662598000000        13.9353642000000        29.3138091024747     
   115.663200000000        13.9189363500000        1000.91009598449     
   115.662060500000        13.9675044500000        1327.90796510080     
   115.661503500000        14.0003601500000        30.4185385477125     
   115.663473000000        13.9682199000000        1389.81312295845     
   115.662935500000        14.0003601500000        30.5677107711996     
   115.658132000000        13.8367971000000        71.6269759746003     
   115.658848000000        13.8532249500000        1763.83002009519     
   115.658029500000        13.8039414000000        206.120766628033     
   115.658734000000        13.8203692500000        4847.01477112429     
   115.659450000000        13.8367971000000        70.8122290035289     
   115.659325000000        13.8039414000000        191.190366694621     
   115.660041000000        13.8203692500000        4596.85040146202     
   115.660177500000        13.8532249500000        1765.25461176077     
   115.657927500000        13.7710857000000        1578.96434178787     
   115.658620500000        13.7875135500000        35756.3018385875     
   115.657825000000        13.7382300000000        3279.03761768077     
   115.658507000000        13.7546578500000        86188.5798091582     
   115.659200000000        13.7710857000000        1384.28786924321     
   115.659075000000        13.7382300000000        3279.03761768077     
   115.659768000000        13.7546578500000        84004.7185928649     
   115.659904500000        13.7875135500000        32265.6385430789     
   115.660620500000        13.8039414000000        184.001250376667     
   115.660472500000        13.7710857000000        1250.12709501896     
   115.661188500000        13.7875135500000        31006.7013211097     
   115.660325000000        13.7382300000000        3195.94465106429     
   115.661029500000        13.7546578500000        82788.5529193959     
   115.661745500000        13.7710857000000        1261.92672752442     
   115.661575000000        13.7382300000000        3521.65141337978     
   115.662291000000        13.7546578500000        92566.4780269603     
   115.661916000000        13.8039414000000        194.081586766155     
   115.662473000000        13.7875135500000        32570.4022722211     
   115.660768000000        13.8367971000000        71.3515914812774     
   115.661506500000        13.8532249500000        1778.70556526029     
   115.661347500000        13.8203692500000        4668.38661923907     
   115.662086500000        13.8367971000000        73.9710110750158     
   115.662655000000        13.8203692500000        4920.35819661234     
   115.662836500000        13.8532249500000        1842.61275755020     
   115.659927500000        14.7239009000000        172.281769909407     
   115.664064000000        14.7896123000000        9.54554055443812     
   115.663518500000        14.6581895000000        9.89068103563055     
   115.667655000000        14.7239009000000        95.1044808116279     
   115.659564000000        14.5924781000000        179.999766612930     
   115.662973000000        14.5267667000000        9.83659886535128     
   115.666927500000        14.5924781000000        114.304524586371     
   115.659200000000        14.4610553000000        179.999766612928     
   115.662427500000        14.3953439000000        8.30416615768744     
   115.666200500000        14.4610553000000        114.304524586370     
   115.658836500000        14.3296325000000        300.181044513995     
   115.665473000000        14.3296325000000        215.449046931279     
   115.652200000000        14.3296325000000        807.506646711635     
   115.653859500000        14.3296325000000        324.832906146563     
   115.653052500000        14.3953439000000        10.4761033294396     
   115.655518000000        14.3296325000000        214.419264120745     
   115.654757000000        14.3953439000000        4.21171318358871     
   115.653950500000        14.4610553000000        341.516591303413     
   115.655700000000        14.4610553000000        183.076779934023     
   115.654893500000        14.5267667000000        4.66450368147065     
   115.652200000000        14.4610553000000        807.506646711624     
   115.653098000000        14.5267667000000        9.65866700693011     
   115.657177500000        14.3296325000000        206.334183684093     
   115.656461500000        14.3953439000000        2.37512524822787     