 TITLE = "Adapted Mesh"
 VARIABLES = "X", "Y"
 ZONE T = "Domain", N=        8990 E=       16650 
 DATAPACKING=POINT, ZONETYPE=FEQUADRILATERAL
   115.652200000000        13.7382300000000     
   115.652200000000        14.7896122899470     
   115.652200000000        16.1119466301946     
   115.652200000000        17.7762056196718     
   115.652200000000        19.8707748919024     
   115.652200000000        22.5069598288973     
   115.652200000000        25.8246913631930     
   115.652200000000        30.0000000000000     
   115.662200000000        13.7382299995359     
   115.668018825858        14.7896122892128     
   115.675337223113        16.1119466291208     
   115.684547985713        17.7762056181705     
   115.696140280880        19.8707748898631     
   115.710730121936        22.5069598261809     
   115.729091951041        25.8246913596245     
   115.752200000000        29.9999999860769     
   115.673399828472        13.7381680140919     
   115.685735639483        14.7895142355183     
   115.701250516132        16.1118032120201     
   115.720777174854        17.7760051077507     
   115.745352641767        19.8705025240864     
   115.776282854550        22.5065970246292     
   115.815209617297        25.8242147414576     
   115.864198284721        29.9993801212521     
   115.685942965079        13.7380208405238     
   115.705577408853        14.7892814242136     
   115.730271851153        16.1114626932616     
   115.761351695230        17.7755290309168     
   115.800467536330        19.8698558393064     
   115.849697986057        22.5057356159590     
   115.911656241885        25.8230830951912     
   115.989629650791        29.9979083739534     
   115.699989795288        13.7377584865577     
   115.727797844947        14.7888664110430     
   115.762772315610        16.1108556790542     
   115.806790361521        17.7746803687072     
   115.862189702815        19.8687030486325     
   115.931914254552        22.5042000550299     
   116.019665059956        25.8210658043834     
   116.130097952880        29.9952848212987     
   115.715719485094        13.7373423420753     
   115.752680367332        14.7882081193327     
   115.799166449865        16.1098928363082     
   115.857672739635        17.7733342251701     
   115.931306401640        19.8668744981234     
   116.023980320791        22.5017643563534     
   116.140613713805        25.8178659883049     
   116.287394850944        29.9911233619440     
   115.733332011404        13.7367228763120     
   115.780541315993        14.7872281972284     
   115.839916944947        16.1084595645914     
   115.914645714580        17.7713303782630     
   116.008696336946        19.8641525482116     
   116.127066652044        22.4981386157658     
   116.276039864877        25.8131027952463     
   116.463520114043        29.9849286880627     
   115.753050336998        13.7358367414360     
   115.811733391872        14.7858264358984     
   115.885539674818        16.1064092946166     
   115.978430526045        17.7684639105169     
   116.095339213459        19.8602588467511     
   116.242478252190        22.4929520576442     
   116.427657917501        25.8062891313764     
   116.660703369991        29.9760673211394     
   115.775122705272        13.7346031340164     
   115.846649286874        14.7838750138021     
   115.936609005763        16.1035550696879     
   116.049830191411        17.7644734391160     
   116.192325819631        19.8548383412030     
   116.371668092851        22.4857317385317     
   116.597376663580        25.7968036833565     
   116.881427052747        29.9637312266430     
   115.799825009498        13.7329192305196     
   115.885725431758        14.7812112761823     
   115.993763278197        16.0996589847086     
   116.129737169839        17.7590263506510     
   116.300868438246        19.8474392220816     
   116.516250980708        22.4758758310459     
   116.787317500302        25.7838558209852     
   117.128450095023        29.9468921689925     
   115.827463161390        13.7306544701587     
   115.929445742940        14.7776286912037     
   116.057710286885        16.0944189582813     
   116.219141024111        17.7517003072869     
   116.422311253975        19.8374878016325     
   116.678017420766        22.4626201613250     
   116.999832642535        25.7664416369102     
   117.404831613976        29.9242445400459     
   398.099278684147        1.90414529029724     
   3.03055303662304        32.9390313421884     
   115.774689595769        13.6290925145525     
   115.769539122727        13.7175732408482     
   115.826283141730        13.7250192391720     
   116.198470131718        13.5024234252198     
   115.908449396514        13.5718489221260     
   115.844717232251        13.6523871829052     
   115.929165590298        13.7422140507302     
   116.111696156314        13.5907542076773     
   115.997515849038        13.5452287751309     
   115.890605622420        13.7053402374399     
   115.987349569833        13.7802678048377     
   115.972081160014        13.6504884069755     
   115.975586728025        13.3357334957129     
   116.003442339647        13.7201372835786     
   117.424268922646        10.7755379555278     
   115.938547686790        13.4839442022325     
   116.070427199891        13.4404981513591     
   116.072319282268        13.7887589540742     
   117.863607465837        11.4070193188916     
   118.252987827498        10.5628563874055     
   116.762574888173        12.4285642185195     
   117.015129373959        11.3763105358704     
   117.337518388217        9.87649197741841     
   116.380059662556        12.3145217787382     
   116.771768526838        13.1137285726327     
   116.127572842324        13.2994600522397     
   116.315360804338        13.0848147054606     
   116.144603509233        13.6905941826554     
   119.667075397222        10.6110184339920     
   117.287802710791        12.0639108093402     
   116.660553238655        10.5844589193272     
   116.594276470134        11.9134332143944     
   116.109163878828        13.9571461836500     
   117.008966273082        8.59956330334760     
   116.322763433320        13.2760379666016     
   116.083204538731        12.5101572147274     
   116.120795240021        12.8785919765354     
   117.495759527529        12.6972699702852     
   121.232126236767        11.6190775314082     
   121.013319941839        9.34900283781165     
   116.421789125675        11.2924873204315     
   123.352475178505        10.0319524040193     
   116.209807839552        13.8004733281420     
   116.098524090363        9.65465782773859     
   118.666040637513        8.97191499635372     
   116.423453914136        12.7145637180873     
   12.3007183726238        21.2447674256272     
   16.8306834891157        19.3474955363628     
   12.7406600845745        16.2047097231283     
   21.4302552439600        17.7996161992079     
   17.5262840441843        13.7062159078830     
   119.085931401794        12.7994533508515     
   121.235336262545        14.0193430297561     
   123.109009202294        16.0110145593928     
   124.733726351523        12.5525117108741     
   126.705838410471        18.4932359445830     
   387.261015087347        17.8522918671307     
   383.190334309661        17.6031112853586     
   386.137224689555        13.8001942225454     
   381.306626231746        13.3175749258170     
   378.447375703809        17.4199249579216     
   376.387923734449        13.1011890208737     
   373.544346969450        17.3031132052698     
   371.429126536920        12.9882815791689     
   368.587860629999        17.2320931527421     
   366.450799628136        12.9266422710135     
   363.609871659758        17.1907500476754     
   361.463065416161        12.8931752041808     
   358.622772201068        17.1677838482596     
   356.471040596969        12.8755084546565     
   353.631848910600        17.1556369264538     
   351.477165771203        12.8665406372662     
   348.639361046204        17.1495318014383     
   346.482527579120        12.8621930871259     
   343.646251534528        17.1466233919148     
   341.487587479769        12.8601911466777     
   338.652905383149        17.1453143929512     
   336.492535573100        12.8593198113458     
   333.659475709618        17.1447597367392     
   331.497446959086        12.8589628958391     
   328.666020302208        17.1445392207857     
   326.502348870305        12.8588258191683     
   323.672558864962        17.1444572138514     
   321.507249676803        12.8587766169206     
   318.679096965011        17.1444287650791     
   316.512151164816        12.8587601570853     
   313.685635611697        17.1444195814311     
   311.517053301670        12.8587550375831     
   308.692174693859        17.1444168288344     
   306.521955789206        12.8587535604168     
   303.698713992545        17.1444160644477     
   301.526858423419        12.8587531659505     
   298.705253375979        17.1444158683403     
   296.531761106839        12.8587530688696     
   293.711792786102        17.1444158222053     
   291.536663802323        12.8587530471804     
   288.718332202160        17.1444158125769     
   286.541566498764        12.8587530431054     
   283.724871618245        17.1444158111153     
   281.546469193951        12.8587530427835     
   278.731411033289        17.1444158112835     
   276.551371887935        12.8587530431332     
   273.737950447442        17.1444158116778     
   271.556274581122        12.8587530435144     
   268.744489861024        17.1444158120187     
   266.561177273850        12.8587530438089     
   263.751029274283        17.1444158122639     
   261.566079966337        12.8587530440098     
   258.757568687383        17.1444158124234     
   256.570982658720        12.8587530441342     
   253.764108100440        17.1444158125167     
   251.575885351133        12.8587530442014     
   248.770647513649        17.1444158125604     
   246.580788043929        12.8587530442253     
   243.777186927717        17.1444158125718     
   241.585690738555        12.8587530442454     
   238.783726345564        17.1444158126672     
   236.590593440791        12.8587530445795     
   233.790265778380        17.1444158136746     
   231.595496171783        12.8587530471754     
   228.796805265077        17.1444158200308     
   226.600399001482        12.8587530613667     
   223.803344927725        17.1444158510321     
   221.605302138121        12.8587531243162     
   218.809885109650        17.1444159775795     
   216.610206135607        12.8587533620084     
   213.816426668707        17.1444164225510     
   211.615112296178        12.8587541389555     
   208.822971481561        17.1444177810626     
   206.620023279219        12.8587563373423     
   203.829523056295        17.1444213540728     
   201.624943670754        12.8587616226353     
   198.836086764505        17.1444291877862     
   196.629879860907        12.8587717949598     
   193.842668877310        17.1444420482519     
   191.634838824785        12.8587841946289     
   188.849274886792        17.1444500895117     
   186.639829119335        12.8587755558574     
   183.855914699304        17.1444039745739     
   181.644880774817        12.8586594326841     
   178.862642468766        17.1441432025134     
   176.650132794042        12.8581956371411     
   173.869698882560        17.1432455777774     
   171.656093917133        12.8568339155130     
   168.877878835261        17.1407496968019     
   166.664256504290        12.8535026711444     
   163.889284106547        17.1346775301986     
   161.678308457072        12.8464133312580     
   158.908562390408        17.1211823298448     
   156.706238947081        12.8330284567451     
   153.944410396508        17.0928337422944     
   151.763902163178        12.8103629063000     
   149.009469273367        17.0349625327062     
   146.883114922234        12.7748572897858     
   144.102020814382        16.9191035259889     
   142.154265754964        12.7102515767459     
   138.171148705662        12.4583825740841     
   134.159064285150        14.5368631958534     
   116.477528561837        13.6277542426988     
   122.377887100101        7.82480622586094     
   117.570081432908        7.13411349172801     
   113.956223255569        10.1262181605305     
   115.870977942305        12.7750974587052     
   115.739446534784        10.9210110832316     
   112.656662378978        8.70644792251051     
   107.602118610459        8.48115323498371     
   111.629727946073        10.1661861992186     
   100.041722017877        5.62551457781893     
   32.7293657516564        11.8588088165653     
   28.3952496873975        13.4457851723342     
   25.3833565343695        16.8408594149220     
   23.0655605978446        13.2383192726920     
   12.9892726124005        11.9272932941021     
   7.45854932854729        27.7435225855395     
   7.94117711093030        23.1310973296966     
   11.7732329031486        26.1265192385578     
   16.2488858668210        24.4282237094289     
   8.27348595041667        18.2296251023637     
   20.7417249174088        22.6975963373516     
   118.824295608826        14.8168936806235     
   120.279191480927        16.4065161799466     
   121.837688046417        18.7792756296398     
   123.314083453102        21.9975216325782     
   127.220272962942        23.5333228520742     
   390.763590884681        20.9794749711731     
   385.394288445309        21.5990381062863     
   390.779081026312        15.2745428003157     
   389.889732831716        9.62797608324422     
   384.354358269739        9.12249952271072     
   380.555986749790        21.6295136611582     
   379.283681390836        8.86158045766466     
   375.667035931460        21.5710625296609     
   374.287107735852        8.72507769876636     
   370.725027674461        21.5160044313774     
   369.298083091031        8.65217980979224     
   365.755392892435        21.4782193037654     
   364.306455684805        8.61318105467536     
   360.772983589435        21.4553223413978     
   359.312248970908        8.59265512910594     
   355.784998240237        21.4425072123473     
   354.316616819337        8.58216315124428     
   350.794679916431        21.4357824550782     
   349.320324297118        8.57700215257170     
   345.803418706661        21.4324576403007     
   344.323751217901        8.57457675199986     
   340.811790170855        21.4309082247670     
   339.327067484509        8.57349454623797     
   335.820026151029        21.4302288118332     
   334.330344800447        8.57303852374222     
   330.828216532011        21.4299491970434     
   329.333611100645        8.57285786977223     
   325.836393824045        21.4298414842114     
   324.336875754240        8.57279084212898     
   320.844568434950        21.4298027473935     
   319.340141052727        8.57276762388931     
   315.852743028356        21.4297897731416     
   314.343407102671        8.57276013535663     
   310.860917971668        21.4297857350104     
   309.346673596992        8.57275789187344     
   305.869093147168        21.4297845695040     
   304.349940290008        8.57275726895462     
   300.877268428244        21.4297842582610     
   299.353207052291        8.57275710912180     
   295.885443747682        21.4297841816814     
   294.356473831298        8.57275707150535     
   290.893619078167        21.4297841645832     
   289.359740611284        8.57275706364701     
   285.901794410601        21.4297841613767     
   284.363007389780        8.57275706244897     
   280.909969742622        21.4297841611283     
   279.366274166898        8.57275706258139     
   275.918145073926        21.4297841614081     
   274.369540943111        8.57275706289936     
   270.926320404689        21.4297841617118     
   269.372807718799        8.57275706317463     
   265.934495735118        21.4297841619463     
   264.376074494206        8.57275706337276     
   260.942671065368        21.4297841621061     
   259.379341269475        8.57275706350159     
   255.950846395540        21.4297841622052     
   254.382608044707        8.57275706357702     
   250.959021725738        21.4297841622586     
   249.385874820060        8.57275706361230     
   245.967197056244        21.4297841622777     
   244.389141596100        8.57275706362107     
   240.975372388219        21.4297841622954     
   239.392408375169        8.57275706369329     
   235.983547726298        21.4297841625742     
   234.395675166246        8.57275706447464     
   230.991723087417        21.4297841647185     
   229.398942000602        8.57275706942984     
   225.999898527499        21.4297841764145     
   224.402208976538        8.57275709361222     
   221.008074212616        21.4297842283278     
   219.405476371369        8.57275719216249     
   216.016250582846        21.4297844248412     
   214.408744881322        8.57275753748026     
   211.024428666383        21.4297850700013     
   209.412016042000        8.57275858584899     
   206.032610539285        21.4297869078026     
   204.415292769213        8.57276131970835     
   201.040799698082        21.4297913714890     
   199.418579685801        8.57276723421590     
   196.049000730780        21.4298001057569     
   194.421882724623        8.57277671338694     
   191.057217733377        21.4298111478034     
   189.425208763161        8.57278203052871     
   186.065453521228        21.4298047248048     
   184.428572399066        8.57274707901500     
   181.073721244365        21.4297030423095     
   179.432035219988        8.57256209781621     
   176.082102038053        21.4292744202228     
   174.435841474303        8.57196626100259     
   171.090916787312        21.4279305139084     
   169.440777471017        8.57046246321358     
   166.101107203903        21.4243222046937     
   164.448966538466        8.56733840288785     
   161.114885066150        21.4155154952044     
   159.465424848971        8.56211747117906     
   156.136523620307        21.3951556792531     
   154.500974283779        8.55628106136873     
   151.172953011309        21.3490964867545     
   149.578155443202        8.55857404002191     
   146.236814050969        21.2456726425860     
   144.745495328685        8.60075302274483     
   141.402401879137        21.0250529512799     
   138.986395812015        16.6999554311853     
   140.104339872341        8.78844383982123     
   135.523731774665        9.53158454684071     
   130.162871036206        9.10321955843187     
   117.272190669672        13.9009204012480     
   125.487166069912        8.02342455323458     
   120.242163259362        6.74509584654795     
   112.613422294048        11.2030946037087     
   113.673104724875        11.6089063791978     
   115.914462831808        11.9254844005189     
   115.554785822466        7.89822295402030     
   114.700611317524        11.5874835766806     
   110.252434084533        7.62269625914493     
   110.483007925442        11.0436773846642     
   111.448549396750        11.4493384123385     
   109.370937282523        10.4276941315877     
   107.356461025705        10.8624245303734     
   105.144790779319        7.50411174937694     
   105.827202518483        9.88114943068011     
   104.169840713735        9.56305778372334     
   102.325628659602        8.13492780422739     
   99.9057579785208        8.46232696867847     
   97.6043750178897        7.73378859873182     
   96.0736822307416        8.19869251148233     
   94.7015724860220        6.74483460837720     
   43.6198803561397        8.07592723996472     
   41.3221683069898        11.4896867606990     
   39.3119187991985        8.12156148926938     
   37.1644926038992        12.9143572587252     
   34.8640957469659        8.27851905199050     
   32.9650106527403        16.1501787188384     
   30.2503868871089        8.48133048382869     
   28.9895023066604        18.7484468067590     
   25.3810227453987        8.78479213430047     
   25.0373715788335        20.9587250007142     
   20.2790759543247        8.84082249002255     
   15.3528353656094        8.57948024557761     
   8.52829135018077        12.7708287148432     
   10.8033675609366        8.37282032492645     
   6.95065063628226        8.30692371921985     
   3.49559119382615        29.3675712557102     
   6.66518691807516        31.9968911311760     
   3.81968735643434        25.0263207613210     
   11.0576711401362        30.8132114935654     
   4.02375199087229        20.4161318103419     
   15.6347361861795        29.3982315509714     
   20.2154351295691        27.7529776128602     
   117.863983931233        16.4521646217784     
   118.643396637567        18.4281894242883     
   119.233532739827        21.4743512397459     
   120.075706721027        23.5135570949618     
   122.271326011681        25.0840600943220     
   392.712371182158        26.0338417230288     
   396.734611434672        26.7536331340618     
   395.943978860783        22.7324638120047     
   387.786736908277        25.7345917894766     
   395.441835855477        17.6245712590651     
   396.094003751859        3.92453152091173     
   392.295859964771        4.49685670357198     
   395.409463045989        7.37306128198235     
   387.290555266639        4.62518375169393     
   395.146438768991        11.7565802750001     
   382.777484323815        25.7928005257453     
   382.183452043396        4.50227404919303     
   377.832219548198        25.7936003176771     
   377.153155605195        4.40577058191173     
   372.877384838044        25.7708941082789     
   372.150069450332        4.34951486751112     
   367.905909520908        25.7490666874632     
   367.152557602961        4.31884694525097     
   362.924300681889        25.7339162985348     
   362.155288545817        4.30259772792480     
   357.937759790070        25.7247842724736     
   357.157538685470        4.29421728368058     
   352.949044038658        25.7197469185603     
   352.159450602637        4.29003646816737     
   347.959422264149        25.7171556320782     
   347.161193701822        4.28803361685780     
   342.969438643272        25.7159044309855     
   342.162863505446        4.28711860647693     
   337.979317088648        25.7153367173727     
   337.164505237212        4.28672240852112     
   332.989146469307        25.7150949549854     
   332.166138120852        4.28656066701483     
   327.998960246070        25.7149985330336     
   327.167769303480        4.28649868602565     
   323.008769948638        25.7149626029651     
   322.169400797332        4.28647647040043     
   318.018578997946        25.7149501228375     
   317.171032838536        4.28646904515471     
   313.028388152522        25.7149460910331     
   312.172665254704        4.28646673686208     
   308.038197460186        25.7149448821080     
   307.174297857630        4.28646607098508     
   303.048006852969        25.7149445463511     
   302.175930521892        4.28646589316782     
   298.057816280892        25.7149444602192     
   297.177563196251        4.28646584939686     
   293.067625720508        25.7149444399631     
   292.179195864699        4.28646583961305     
   288.077435163061        25.7149444357391     
   287.180828531070        4.28646583777221     
   283.087244605876        25.7149444351001     
   282.182461196239        4.28646583762468     
   278.097054048359        25.7149444351761     
   277.184093860684        4.28646583778054     
   273.106863490505        25.7149444353508     
   272.185726524717        4.28646583795109     
   268.116672932421        25.7149444355017     
   267.187359188527        4.28646583808293     
   263.126482374202        25.7149444356102     
   262.188991852222        4.28646583817284     
   258.136291815915        25.7149444356807     
   257.190624515869        4.28646583822857     
   253.146101257611        25.7149444357220     
   252.192257179528        4.28646583825863     
   248.155910699375        25.7149444357413     
   247.193889843357        4.28646583826930     
   243.165720141522        25.7149444357466     
   242.195522507999        4.28646583827758     
   238.175529585352        25.7149444357909     
   237.197155176028        4.28646583842143     
   233.185339035841        25.7149444362511     
   232.198787856864        4.28646583954903     
   228.195148510279        25.7149444391435     
   227.200420581715        4.28646584572506     
   223.204958062810        25.7149444532438     
   222.202053443663        4.28646587310622     
   218.214767845345        25.7149445108747     
   217.203686691059        4.28646597627792     
   213.224578235992        25.7149447140620     
   212.205320910646        4.28646631227587     
   208.234390056351        25.7149453370506     
   207.206957311237        4.28646725757203     
   203.244204822189        25.7149469861322     
   202.208598014736        4.28646951034647     
   198.254024784403        25.7149506376113     
   197.210246104793        4.28647378369028     
   193.263852333501        25.7149567374702     
   192.211905355213        4.28647882312569     
   188.273688818317        25.7149608368506     
   187.213581383238        4.28647478775496     
   183.283535699756        25.7149394666890     
   182.215292434703        4.28642703978141     
   178.293409022672        25.7148128533506     
   177.217113877903        4.28624634161727     
   173.303393129828        25.7143587816385     
   172.219310706719        4.28575451331246     
   168.313775491314        25.7130281622066     
   167.222659156526        4.28469896473099     
   163.325296527981        25.7095512236518     
   162.229123252453        4.28298634762375     
   158.339454412469        25.7010301669265     
   157.243152830899        4.28162111975617     
   153.358457308588        25.6805783617466     
   152.274035214841        4.28585044787947     
   148.382898461687        25.6302293222037     
   147.339447786509        4.31585876389690     
   143.393891617119        25.4947340379674     
   142.463988023641        4.44649025861499     
   138.189354462004        25.0516724713476     
   137.626186594808        4.96795798182763     
   133.846769217932        22.2340517757698     
   132.481232254919        4.25129619898469     
   117.170460940720        15.2301976900728     
   116.394901249337        14.0329597978245     
   127.704026053959        4.11903396283601     
   123.316708962381        4.34965320129196     
   113.014521576295        12.5456049579684     
   117.758423373925        4.75803348538149     
   114.080152393460        12.5825820172083     
   115.104434549342        12.8114254530195     
   112.642942442824        4.40246222395412     
   111.860845268927        12.4807744212562     
   110.661108466247        12.3620643369334     
   109.341737413392        11.9797485046556     
   108.056456221256        11.7725881176744     
   107.679367757590        4.60421657015299     
   106.216051981367        11.7003168296130     
   104.605390019718        11.3851049434996     
   102.843133749294        10.9479088747620     
   103.358039430041        4.32950127111143     
   100.814156659299        10.5559893314272     
   98.6902435569682        10.3123779012603     
   96.5109314115862        10.2253708168872     
   96.7252349167754        4.94475170862827     
   94.6434164998176        9.38992548907239     
   92.4829466760929        8.69084634826378     
   93.1081816912476        4.75323972450654     
   89.5323450308856        7.20545727034712     
   86.4504884571021        7.48243916257163     
   87.2877063059569        4.18210943740980     
   84.1714956049137        6.39708726720821     
   83.4455278888374        3.20270214993882     
   80.6881774573881        5.22076021468366     
   77.0140164633704        4.16653098036891     
   73.0121577206420        4.43745863313203     
   68.2990564397916        4.27462671054926     
   62.6909483508689        4.71824443843458     
   59.1304132503404        7.70576673617706     
   57.4227637973715        4.09785175681266     
   54.9633110223398        8.04173583474003     
   52.4727255320923        4.42770310629402     
   49.9815452511726        9.74653811101908     
   47.4912496100288        4.56585334516752     
   44.8924358389848        12.4255370509761     
   41.6645541452771        3.86513687411981     
   41.6072731850789        15.8809521095244     
   37.2238143311064        4.07892493809415     
   37.3413677462644        18.5961438563039     
   32.4957523710537        4.19324249901063     
   33.1645631272483        21.3181071584937     
   27.6320152751256        4.30830338681769     
   28.9902483131452        23.7630483302643     
   22.6632659175274        4.38119584572258     
   24.6909031090192        25.8936843134062     
   17.6880396553448        4.34726470951535     
   4.10971579747192        15.6100405455541     
   12.8350005850985        4.27886617340980     
   3.83475493644602        10.7437498616374     
   8.16812553780850        4.37228182878720     
   3.42177248551975        5.27471122810398     
   115.825465039316        13.2398800176725     
  0.000000000000000E+000  0.000000000000000E+000
  0.000000000000000E+000   36.0000000000000     
   400.000000000000        30.0000000000000     
   400.000000000000       0.000000000000000E+000
  0.000000000000000E+000   4.50000000000000     
  0.000000000000000E+000   9.00000000000000     
  0.000000000000000E+000   13.5000000000000     
  0.000000000000000E+000   18.0000000000000     
  0.000000000000000E+000   22.5000000000000     
  0.000000000000000E+000   27.0000000000000     