 TITLE = "Edge Error"
 VARIABLES = "X", "Y","Estimate1" 
 ZONE T = "Domain", I=       15930  DATAPACKING=POINT, ZONETYPE=ORDERED
   115.652356500000        13.7382300000000        780.849199089198     
   115.652200000000        13.7546578500000        117351.631199171     
   115.652515500000        13.7546578500000        101849.205243273     
   115.652359000000        13.7710857000000        1135.80957709543     
   115.652669000000        13.7382300000000        778.354473219857     
   115.652830500000        13.7546578500000        81158.1282932238     
   115.652677000000        13.7710857000000        985.766454271378     
   115.652521000000        13.7875135500000        101849.205762185     
   115.652842000000        13.7875135500000        79977.2097010550     
   115.652686000000        13.8039414000000        115.366215573697     
   115.652200000000        13.7875135500000        117351.631199165     
   115.652362000000        13.8039414000000        118.107895981664     
   115.652981000000        13.7382300000000        770.683157195356     
   115.653146000000        13.7546578500000        76523.8571886325     
   115.652995500000        13.7710857000000        776.508435168509     
   115.653293500000        13.7382300000000        777.441664016959     
   115.653461500000        13.7546578500000        81608.2950117201     
   115.653314000000        13.7710857000000        681.383367860362     
   115.653163500000        13.7875135500000        70400.4104265498     
   115.653484000000        13.7875135500000        67191.6925824005     
   115.653333500000        13.8039414000000        103.490926822408     
   115.653010000000        13.8039414000000        108.499416750756     
   115.652853500000        13.8203692500000        11002.5447123925     
   115.653180500000        13.8203692500000        10527.1433419882     
   115.653024000000        13.8367971000000        15.7691724831571     
   115.653506500000        13.8203692500000        10323.7313811115     
   115.653353500000        13.8367971000000        16.2955667067680     
   115.653197500000        13.8532249500000        1570.02202946070     
   115.653529500000        13.8532249500000        1627.36286389039     
   115.653373500000        13.8696528000000        5.62028741017309     
   115.652864500000        13.8532249500000        1464.20553494204     
   115.653038000000        13.8696528000000        4.96819383383067     
   115.652200000000        13.8203692500000        11976.9061664521     
   115.652527000000        13.8203692500000        11698.8821980110     
   115.652365000000        13.8367971000000        21.9431728124967     
   115.652694500000        13.8367971000000        16.6195694213469     
   115.652532500000        13.8532249500000        1659.71912871417     
   115.652702500000        13.8696528000000        6.79477431524537     
   115.652200000000        13.8532249500000        2184.72213019409     
   115.652367500000        13.8696528000000        9.27785551663967     
   115.653606000000        13.7382300000000        869.072334629559     
   115.653776500000        13.7546578500000        91519.2020133739     
   115.653632000000        13.7710857000000        650.327141126769     
   115.653918500000        13.7382300000000        912.240453482047     
   115.654092000000        13.7546578500000        95758.1939780777     
   115.653950000000        13.7710857000000        645.733131444126     
   115.653805000000        13.7875135500000        66717.0495299537     
   115.654126000000        13.7875135500000        66159.4217879725     
   115.653981000000        13.8039414000000        98.8945484449686     
   115.653657000000        13.8039414000000        101.805414215128     
   115.654231000000        13.7382300000000        1003.46140704732     
   115.654407000000        13.7546578500000        105671.318542758     
   115.654268000000        13.7710857000000        640.335919285628     
   115.654543500000        13.7382300000000        1088.60601346082     
   115.654722500000        13.7546578500000        114271.393427855     
   115.654586000000        13.7710857000000        638.064778538086     
   115.654447000000        13.7875135500000        65924.7813833608     
   115.654768000000        13.7875135500000        65421.7760686350     
   115.654629000000        13.8039414000000        92.2599975001638     
   115.654305000000        13.8039414000000        96.3428263059127     
   115.654160000000        13.8203692500000        9769.79226298574     
   115.654487000000        13.8203692500000        9355.76866122316     
   115.654342000000        13.8367971000000        17.8663585354923     
   115.654813500000        13.8203692500000        8737.49397456927     
   115.654671500000        13.8367971000000        18.3513431688637     
   115.654527000000        13.8532249500000        1778.82470053461     
   115.654859000000        13.8532249500000        1832.66509628532     
   115.654714500000        13.8696528000000        8.34118309796113     
   115.654194000000        13.8532249500000        1725.62626699119     
   115.654379000000        13.8696528000000        7.53573423141757     
   115.653833500000        13.8203692500000        10028.5521017646     
   115.653683000000        13.8367971000000        16.8249744660654     
   115.654012500000        13.8367971000000        17.2795203837073     
   115.653862000000        13.8532249500000        1675.14095247797     
   115.654043500000        13.8696528000000        6.86974947025189     
   115.653708500000        13.8696528000000        6.15881842105358     
   115.653563500000        13.9025085000000        1102.43892751125     
   115.653904500000        13.9023352000000        1201.70175343680     
   115.653759500000        13.9351909000000        8.30400236609123     
   115.654245500000        13.9025085000000        1347.52568417254     
   115.654106500000        13.9351909000000        8.30400236626147     
   115.653933000000        13.9353642000000        9.77313854459557     
   115.654586500000        13.9023352000000        1465.98845434008     
   115.654453000000        13.9351909000000        8.87733993692281     
   115.654927500000        13.9025085000000        1636.15326744170     
   115.654799500000        13.9351909000000        8.89015549206403     
   115.654626500000        13.9353642000000        10.2308689446619     
   115.654314000000        13.9682199000000        925.370259398819     
   115.655018500000        13.9682199000000        970.108753567831     
   115.654706000000        14.0010756000000        6.58839308357364     
   115.653609000000        13.9682199000000        881.052953009502     
   115.653990000000        14.0010756000000        6.42016475189915     
   115.652200000000        13.9025085000000        1819.88320890637     
   115.652541000000        13.9023352000000        1463.94429757552     
   115.652373500000        13.9351909000000        12.0333775688994     
   115.652881500000        13.9025085000000        933.411537396070     
   115.652720000000        13.9351909000000        10.9685257885775     
   115.652546500000        13.9353642000000        17.0030416811412     
   115.653223000000        13.9023352000000        1034.92137755423     
   115.653066500000        13.9351909000000        7.76528717389129     
   115.653413000000        13.9351909000000        7.75409316685431     
   115.653239500000        13.9353642000000        9.84386507958402     
   115.652904500000        13.9682199000000        933.411537396070     
   115.653274000000        14.0010756000000        8.47047474692207     
   115.652200000000        13.9682199000000        1612.25638254834     
   115.652558000000        14.0010756000000        12.3683476879843     
   115.654856000000        13.7382300000000        1174.77954753391     
   115.655038000000        13.7546578500000        123712.348469186     
   115.654904500000        13.7710857000000        635.187383356494     
   115.655168500000        13.7382300000000        1218.38475030234     
   115.655353500000        13.7546578500000        127894.390034920     
   115.655223000000        13.7710857000000        619.887211549528     
   115.655089500000        13.7875135500000        64046.7068947093     
   115.655410500000        13.7875135500000        62941.2662598277     
   115.655277000000        13.8039414000000        79.5488816448645     
   115.654953000000        13.8039414000000        86.1629912752976     
   115.655481000000        13.7382300000000        1271.39805454584     
   115.655668500000        13.7546578500000        133887.018764562     
   115.655541000000        13.7710857000000        609.187828895452     
   115.655793500000        13.7382300000000        1377.09876753418     
   115.655984000000        13.7546578500000        144554.763193853     
   115.655859000000        13.7710857000000        615.315450087469     
   115.655731500000        13.7875135500000        62489.3309759394     
   115.656052000000        13.7875135500000        63574.4123636614     
   115.655924500000        13.8039414000000        70.8140251649920     
   115.655601000000        13.8039414000000        74.5006135297150     
   115.655467000000        13.8203692500000        7554.85606006531     
   115.655794000000        13.8203692500000        7203.24615802284     
   115.655660000000        13.8367971000000        19.9921112184769     
   115.656120500000        13.8203692500000        6904.61415796074     
   115.655990000000        13.8367971000000        20.5475412671673     
   115.655856500000        13.8532249500000        1990.47277609301     
   115.656189000000        13.8532249500000        2045.77362877289     
   115.656055500000        13.8696528000000        11.6876882765231     
   115.655523500000        13.8532249500000        1937.62511350920     
   115.655720000000        13.8696528000000        10.7645504375546     
   115.655140500000        13.8203692500000        8066.78191149644     
   115.655001000000        13.8367971000000        18.9230960477968     
   115.655330500000        13.8367971000000        19.4023473260607     
   115.655191500000        13.8532249500000        1884.03732076140     
   115.655384500000        13.8696528000000        9.96227492567852     
   115.655049500000        13.8696528000000        9.05995190254752     
   115.656106000000        13.7382300000000        1642.88651951154     
   115.656299000000        13.7546578500000        173007.447206612     
   115.656177000000        13.7710857000000        656.392740159790     
   115.656418500000        13.7382300000000        2129.51076509233     
   115.656615000000        13.7546578500000        223536.019961771     
   115.656495500000        13.7710857000000        757.856063031996     
   115.656373000000        13.7875135500000        67818.5460791558     
   115.656694500000        13.7875135500000        78056.3116857802     
   115.656572000000        13.8039414000000        65.2065471546850     
   115.656248000000        13.8039414000000        68.0883394331149     
   115.656731000000        13.7382300000000        2951.73300397654     
   115.656930000000        13.7546578500000        310838.417582729     
   115.656814000000        13.7710857000000        938.614748712742     
   115.657043500000        13.7382300000000        4119.19792844011     
   115.657245500000        13.7546578500000        432395.049451985     
   115.657132000000        13.7710857000000        1205.77825255902     
   115.657015500000        13.7875135500000        96977.8232733814     
   115.657336500000        13.7875135500000        124581.259385226     
   115.657220000000        13.8039414000000        60.3284248445678     
   115.656896000000        13.8039414000000        62.5620128451229     
   115.656774000000        13.8203692500000        6344.21240324301     
   115.657100500000        13.8203692500000        6117.71376957674     
   115.656978500000        13.8367971000000        22.0250000545353     
   115.657427500000        13.8203692500000        5851.06471709973     
   115.657308000000        13.8367971000000        22.6057524416409     
   115.657185500000        13.8532249500000        2199.54168975669     
   115.657518500000        13.8532249500000        2250.69899789516     
   115.657396000000        13.8696528000000        14.9292863423340     
   115.656853500000        13.8532249500000        2149.81141040046     
   115.657060500000        13.8696528000000        14.0203075899713     
   115.656447000000        13.8203692500000        6612.38328774949     
   115.656319500000        13.8367971000000        21.0066190535935     
   115.656649000000        13.8367971000000        21.5924699413314     
   115.656521000000        13.8532249500000        2097.83867534397     
   115.656725500000        13.8696528000000        13.3351324539503     
   115.656390500000        13.8696528000000        12.4354481420340     
   115.656291000000        13.9025085000000        2292.58508750655     
   115.656631500000        13.9023352000000        2426.39592900719     
   115.656532000000        13.9351909000000        12.1702581293924     
   115.656972500000        13.9025085000000        2615.73966551591     
   115.656878500000        13.9351909000000        12.1878274250161     
   115.656705500000        13.9353642000000        13.1965303121452     
   115.657313000000        13.9023352000000        2735.63492823950     
   115.657225000000        13.9351909000000        13.5961288457859     
   115.657655000000        13.9025085000000        2919.72639695545     
   115.657572000000        13.9351909000000        13.6354125542079     
   115.657399000000        13.9353642000000        14.5311290433236     
   115.657131500000        13.9682199000000        1251.32037588417     
   115.657836500000        13.9682199000000        1375.88538228870     
   115.657569000000        14.0010756000000        7.44309241911526     
   115.656427500000        13.9682199000000        1133.44431941914     
   115.656853500000        14.0010756000000        7.14640158423967     
   115.655268000000        13.9023352000000        1767.76914973278     
   115.655146000000        13.9351909000000        9.67570387203484     
   115.655609000000        13.9025085000000        1954.13736619725     
   115.655492500000        13.9351909000000        9.68967196538898     
   115.655319500000        13.9353642000000        10.9376254704690     
   115.655950000000        13.9023352000000        2094.11890631743     
   115.655839000000        13.9351909000000        10.7787461046294     
   115.656185500000        13.9351909000000        10.7943065779367     
   115.656012500000        13.9353642000000        11.9534084838357     
   115.655723000000        13.9682199000000        1037.12520047558     
   115.656138000000        14.0010756000000        6.93237774033025     
   115.655422000000        14.0010756000000        6.70426063493568     
   115.655155000000        14.0667870000000        1209.30991176158     
   115.655893000000        14.0664064000000        1223.45074265062     
   115.655626000000        14.1321178000000        7.39318134872997     
   115.656632000000        14.0667870000000        1272.45034155615     
   115.656387000000        14.1321178000000        7.40290026273152     
   115.656007000000        14.1324984000000        7.74014732668552     
   115.657369500000        14.0664064000000        1305.96225637336     
   115.657148000000        14.1321178000000        7.32165329231991     
   115.658109000000        14.0667870000000        1366.19524903928     
   115.657909500000        14.1321178000000        7.33609535747290     
   115.657529500000        14.1324984000000        8.05338914474384     
   115.656904500000        14.1982097500000        891.210999319161     
   115.658473000000        14.1982097500000        1056.38651665546     
   115.657848000000        14.2639211000000        12.9734155378023     
   115.655336500000        14.1982097500000        745.781580724844     
   115.656234000000        14.2639211000000        10.9449238944896     
   115.652200000000        14.0667870000000        2270.22749232240     
   115.652938500000        14.0664064000000        1545.76235870797     
   115.652580500000        14.1321178000000        11.1308076762645     
   115.653677500000        14.0667870000000        1130.43681065699     
   115.653342000000        14.1321178000000        11.1381214323756     
   115.652961500000        14.1324984000000        13.3200804268812     
   115.654415500000        14.0664064000000        1171.60537220703     
   115.654103000000        14.1321178000000        7.48481417294909     
   115.654864500000        14.1321178000000        7.49957807525748     
   115.654484500000        14.1324984000000        7.58552118591923     
   115.653768500000        14.1982097500000        583.138659914098     
   115.654620500000        14.2639211000000        9.15324787008029     
   115.652200000000        14.1982097500000        1149.41624025677     
   115.653007000000        14.2639211000000        6.51395454206598     
   115.657356000000        13.7382300000000        5456.52002942052     
   115.657560500000        13.7546578500000        574610.789851517     
   115.657450000000        13.7710857000000        1520.14785075928     
   115.657668500000        13.7382300000000        6780.53154279310     
   115.657876000000        13.7546578500000        711757.775580504     
   115.657768000000        13.7710857000000        1843.85047785641     
   115.657657500000        13.7875135500000        157062.073603188     
   115.657978500000        13.7875135500000        190507.219590914     
   115.657868000000        13.8039414000000        56.7404028778984     
   115.657544000000        13.8039414000000        57.6988984295574     
   115.657981000000        13.7382300000000        7892.56409755973     
   115.658191000000        13.7546578500000        831144.612752690     
   115.658086000000        13.7710857000000        2068.11941113919     
   115.658293500000        13.7382300000000        8720.24182656153     
   115.658507000000        13.7546578500000        915371.801939102     
   115.658404500000        13.7710857000000        2125.02978844072     
   115.658299000000        13.7875135500000        213678.861746559     
   115.658620500000        13.7875135500000        218870.702671963     
   115.658515000000        13.8039414000000        53.1310213258661     
   115.658191500000        13.8039414000000        56.5652781805845     
   115.658081000000        13.8203692500000        5753.87234102953     
   115.658407000000        13.8203692500000        5387.85903806593     
   115.658296500000        13.8367971000000        24.6761949948112     
   115.658734000000        13.8203692500000        4671.38737286502     
   115.658626000000        13.8367971000000        25.6719726937332     
   115.658515000000        13.8532249500000        2464.31015188347     
   115.658848000000        13.8532249500000        2555.98700147666     
   115.658737000000        13.8696528000000        18.0119711012196     
   115.658183000000        13.8532249500000        2366.56205096592     
   115.658401500000        13.8696528000000        17.1347412307047     
   115.657754000000        13.8203692500000        5671.48839122873     
   115.657637500000        13.8367971000000        23.0844012499975     
   115.657967000000        13.8367971000000        23.7694437623217     
   115.657850500000        13.8532249500000        2305.34184651715     
   115.658066500000        13.8696528000000        16.4448308460743     
   115.657731500000        13.8696528000000        15.6011108884257     
   115.658606000000        13.7382300000000        8692.38162870749     
   115.658822000000        13.7546578500000        878300.250443556     
   115.658723000000        13.7710857000000        2118.36825307068     
   115.658918500000        13.7382300000000        8367.07617972728     
   115.659137500000        13.7546578500000        665852.210599667     
   115.659041000000        13.7710857000000        1972.14871498756     
   115.658941500000        13.7875135500000        203763.369619214     
   115.659262500000        13.7875135500000        163065.501162882     
   115.659163000000        13.8039414000000        47.6663450932060     
   115.658839000000        13.8039414000000        46.2175791662961     
   115.659231000000        13.7382300000000        6322.93289224335     
   115.659452500000        13.7546578500000        425405.463279318     
   115.659359000000        13.7710857000000        1578.24834330081     
   115.659543500000        13.7382300000000        4052.59518588572     
   115.659768000000        13.7546578500000        236531.994668856     
   115.659677000000        13.7710857000000        1056.78321036109     
   115.659583500000        13.7875135500000        109187.509782372     
   115.659904500000        13.7875135500000        64285.3925842148     
   115.659811000000        13.8039414000000        40.6492281789501     
   115.659487000000        13.8039414000000        47.6663450952967     
   115.659387500000        13.8203692500000        4833.71132309890     
   115.659714500000        13.8203692500000        4122.12796946090     
   115.659615000000        13.8367971000000        24.2144177117032     
   115.660041000000        13.8203692500000        3787.37595218621     
   115.659944500000        13.8367971000000        25.2112565267778     
   115.659845000000        13.8532249500000        2410.87233817464     
   115.660177500000        13.8532249500000        2517.75283298078     
   115.660078000000        13.8696528000000        20.9229221669193     
   115.659512500000        13.8532249500000        2340.53301181409     
   115.659742500000        13.8696528000000        20.0739618330732     
   115.659060500000        13.8203692500000        4686.79282647103     
   115.658955500000        13.8367971000000        25.5941788383853     
   115.659285000000        13.8367971000000        24.9539291620156     
   115.659180000000        13.8532249500000        2484.49781437152     
   115.659407500000        13.8696528000000        19.4906953607301     
   115.659072500000        13.8696528000000        18.7038089832190     
   115.659018500000        13.9025085000000        3522.61577387074     
   115.659358500000        13.9023352000000        3649.48886467236     
   115.659304500000        13.9351909000000        17.7821939356425     
   115.659700000000        13.9025085000000        3823.19447208182     
   115.659651000000        13.9351909000000        17.8593174418229     
   115.659478500000        13.9353642000000        18.0992108271995     
   115.660040000000        13.9023352000000        3916.83844960434     
   115.659997500000        13.9351909000000        19.1465676707559     
   115.660382000000        13.9025085000000        4091.92347052402     
   115.660344000000        13.9351909000000        19.2296086293368     
   115.660171500000        13.9353642000000        19.1312003807505     
   115.659950000000        13.9682199000000        1716.20936459146     
   115.660654500000        13.9682199000000        1814.06754665665     
   115.660433000000        14.0010756000000        7.79034362138603     
   115.659245500000        13.9682199000000        1618.35898684807     
   115.659717000000        14.0010756000000        7.96986711060474     
   115.657995000000        13.9023352000000        3044.08326051986     
   115.657918500000        13.9351909000000        15.0434706460599     
   115.658336500000        13.9025085000000        3225.72572007344     
   115.658265000000        13.9351909000000        15.1087159811150     
   115.658092500000        13.9353642000000        15.8543525930353     
   115.658676500000        13.9023352000000        3343.32833514218     
   115.658611500000        13.9351909000000        16.4392753677843     
   115.658958000000        13.9351909000000        16.5105744751957     
   115.658785500000        13.9353642000000        17.0672986127101     
   115.658541000000        13.9682199000000        1503.34303805235     
   115.659001000000        14.0010756000000        7.96986711044655     
   115.658285000000        14.0010756000000        7.74143212104477     
   115.659856000000        13.7382300000000        2246.10494128957     
   115.660083500000        13.7546578500000        125447.249223922     
   115.659995500000        13.7710857000000        624.149294066853     
   115.660168500000        13.7382300000000        1195.06256488602     
   115.660399000000        13.7546578500000        63968.0858099676     
   115.660314000000        13.7710857000000        360.440548445251     
   115.660226000000        13.7875135500000        37240.9972672560     
   115.660546500000        13.7875135500000        24980.0921251699     
   115.660458500000        13.8039414000000        47.2937925809900     
   115.660135000000        13.8039414000000        41.2067358580306     
   115.660481000000        13.7382300000000        607.439205123032     
   115.660714000000        13.7546578500000        35539.9394804704     
   115.660632000000        13.7710857000000        241.772045348507     
   115.660793500000        13.7382300000000        338.567702568443     
   115.661029500000        13.7546578500000        25022.8095652986     
   115.660950000000        13.7710857000000        193.165218261888     
   115.660867500000        13.7875135500000        19958.0102971905     
   115.661188500000        13.7875135500000        15489.6824402421     
   115.661106000000        13.8039414000000        47.0455166786137     
   115.660782000000        13.8039414000000        47.4402129931710     
   115.660694000000        13.8203692500000        4810.79388727902     
   115.661021000000        13.8203692500000        4770.77272062568     
   115.660933000000        13.8367971000000        25.0698586610049     
   115.661347500000        13.8203692500000        3950.95323991695     
   115.661262500000        13.8367971000000        27.2123266439591     
   115.661174500000        13.8532249500000        2496.05056381100     
   115.661506500000        13.8532249500000        2717.60033365062     
   115.661418500000        13.8696528000000        23.8930592830089     
   115.660842000000        13.8532249500000        2356.34256879076     
   115.661083500000        13.8696528000000        23.0825113409578     
   115.660368000000        13.8203692500000        4178.66912289863     
   115.660274000000        13.8367971000000        25.2878864845415     
   115.660603500000        13.8367971000000        24.1071885802050     
   115.660510000000        13.8532249500000        2407.49529860118     
   115.660748500000        13.8696528000000        22.3907238362441     
   115.660413500000        13.8696528000000        21.6674999454835     
   115.661106000000        13.7382300000000        237.615548214048     
   115.661344500000        13.7546578500000        18692.5740833138     
   115.661268000000        13.7710857000000        149.918015407453     
   115.661418500000        13.7382300000000        178.072660484009     
   115.661660000000        13.7546578500000        17621.5330043604     
   115.661586000000        13.7710857000000        114.550833787078     
   115.661509500000        13.7875135500000        11835.5197773265     
   115.661830500000        13.7875135500000        11176.7288517505     
   115.661754000000        13.8039414000000        33.2864139913864     
   115.661430000000        13.8039414000000        38.9610892592898     
   115.661731500000        13.7382300000000        229.832809977669     
   115.661976000000        13.7546578500000        24125.9622869673     
   115.661904500000        13.7710857000000        133.092110057422     
   115.662044000000        13.7382300000000        229.098519841377     
   115.662291000000        13.7546578500000        21626.8881529335     
   115.662223000000        13.7710857000000        132.674893406604     
   115.662152000000        13.7875135500000        13708.1416263443     
   115.662473000000        13.7875135500000        12301.1294680638     
   115.662402000000        13.8039414000000        32.7413803845694     
   115.662078000000        13.8039414000000        32.7413803831333     
   115.662001000000        13.8203692500000        3279.04258476520     
   115.662328000000        13.8203692500000        3320.23581938375     
   115.662251000000        13.8367971000000        30.0325045638417     
   115.662655000000        13.8203692500000        3237.08081214040     
   115.662581000000        13.8367971000000        30.0325045651350     
   115.662504000000        13.8532249500000        2990.16096146755     
   115.662836500000        13.8532249500000        2934.06856757024     
   115.662759500000        13.8696528000000        25.5406111640423     
   115.662171500000        13.8532249500000        2954.89691244476     
   115.662424500000        13.8696528000000        25.5406111651257     
   115.661674500000        13.8203692500000        3375.50068832945     
   115.661592000000        13.8367971000000        29.0466920289054     
   115.661921500000        13.8367971000000        29.5884098564975     
   115.661839500000        13.8532249500000        2892.00434432620     
   115.662089500000        13.8696528000000        25.1005297208345     
   115.661754000000        13.8696528000000        24.5398640832043     
   115.661745500000        13.9025085000000        4686.76082412963     