TITLE = "Visualization of the solution"
VARIABLES = "x","y","Density","Momentum_x","Momentum_y","Energy","Pressure","Temperature","Pressure_Coefficient","Mach"
ZONE NODES= 8990, ELEMENTS= 16650, DATAPACKING=POINT, ZONETYPE=FEQUADRILATERAL
1.156522e+02	1.373823e+01	3.592202e-01	2.532389e+02	8.999822e+00	8.943224e+04	2.272427e+01	2.129967e-01	-1.428432e+18	7.495749e+01	
1.156522e+02	1.478961e+01	1.091686e+00	2.604127e-01	-7.590732e+01	2.296420e+05	9.080118e+04	2.800511e+02	-8.718505e+17	2.037640e-01	
1.156522e+02	1.611195e+01	1.087129e+00	1.911697e-01	-7.655736e+01	2.293309e+05	9.065409e+04	2.807694e+02	-8.727524e+17	2.061057e-01	
1.156522e+02	1.777621e+01	1.086078e+00	1.738759e-01	-7.730592e+01	2.292672e+05	9.060636e+04	2.808931e+02	-8.730450e+17	2.082763e-01	
1.156522e+02	1.987077e+01	1.086830e+00	1.536256e-01	-7.736978e+01	2.295055e+05	9.070063e+04	2.809909e+02	-8.724670e+17	2.082679e-01	
1.156522e+02	2.250696e+01	1.091179e+00	1.320094e-01	-7.308752e+01	2.303022e+05	9.114180e+04	2.812323e+02	-8.697621e+17	1.958724e-01	
1.156522e+02	2.582469e+01	1.100050e+00	1.008030e-01	-5.393224e+01	2.319152e+05	9.223727e+04	2.823173e+02	-8.630456e+17	1.430954e-01	
1.156522e+02	3.000000e+01	1.115635e+00	2.427117e-02	-1.653882e+00	2.353963e+05	9.415803e+04	2.841704e+02	-8.512690e+17	4.313180e-03	
1.156622e+02	1.373823e+01	1.360541e+00	2.417038e+02	-8.009442e+01	2.915618e+05	1.070938e+05	2.650308e+02	-7.719570e+17	5.637748e-01	
1.156680e+02	1.478961e+01	1.090882e+00	9.386923e-01	-7.563003e+01	2.296409e+05	9.080754e+04	2.802770e+02	-8.718115e+17	2.031018e-01	
1.156753e+02	1.611195e+01	1.086993e+00	3.652649e-01	-7.661343e+01	2.293287e+05	9.065147e+04	2.807965e+02	-8.727684e+17	2.062743e-01	
1.156845e+02	1.777621e+01	1.085997e+00	3.414754e-01	-7.725748e+01	2.292582e+05	9.060406e+04	2.809070e+02	-8.730591e+17	2.081578e-01	
1.156961e+02	1.987077e+01	1.086810e+00	2.713900e-01	-7.722494e+01	2.294890e+05	9.069811e+04	2.809882e+02	-8.724824e+17	2.078836e-01	
1.157107e+02	2.250696e+01	1.090999e+00	4.890085e-02	-7.246651e+01	2.302551e+05	9.113936e+04	2.812711e+02	-8.697771e+17	1.942264e-01	
1.157291e+02	2.582469e+01	1.099899e+00	-4.432088e-01	-5.288197e+01	2.318627e+05	9.223656e+04	2.823540e+02	-8.630499e+17	1.403237e-01	
1.157522e+02	3.000000e+01	1.115639e+00	-1.908280e+00	-1.844724e+00	2.354547e+05	9.418062e+04	2.842376e+02	-8.511305e+17	6.920218e-03	
1.156734e+02	1.373817e+01	1.263371e+00	1.765985e+02	-5.220204e+01	2.647173e+05	1.005184e+05	2.678911e+02	-8.122722e+17	4.367420e-01	
1.156857e+02	1.478951e+01	1.090099e+00	1.438498e+00	-7.527904e+01	2.296571e+05	9.082274e+04	2.805254e+02	-8.717183e+17	2.022363e-01	
1.157013e+02	1.611180e+01	1.086918e+00	5.244774e-01	-7.666486e+01	2.293441e+05	9.065611e+04	2.808301e+02	-8.727400e+17	2.064170e-01	
1.157208e+02	1.777601e+01	1.085972e+00	4.949831e-01	-7.718568e+01	2.292615e+05	9.060738e+04	2.809238e+02	-8.730388e+17	2.079652e-01	
1.157454e+02	1.987050e+01	1.086827e+00	3.687447e-01	-7.694528e+01	2.294784e+05	9.070182e+04	2.809954e+02	-8.724597e+17	2.071261e-01	
1.157763e+02	2.250660e+01	1.090826e+00	-7.948798e-02	-7.159733e+01	2.302039e+05	9.114167e+04	2.813229e+02	-8.697629e+17	1.919097e-01	
1.158152e+02	2.582421e+01	1.099770e+00	-1.074271e+00	-5.165626e+01	2.318131e+05	9.223975e+04	2.823968e+02	-8.630303e+17	1.371017e-01	
1.158642e+02	2.999938e+01	1.115623e+00	-3.894221e+00	-2.045751e+00	2.354633e+05	9.418185e+04	2.842454e+02	-8.511229e+17	1.146924e-02	
1.156859e+02	1.373802e+01	1.245518e+00	1.442523e+02	-4.062825e+01	2.600414e+05	1.004101e+05	2.714382e+02	-8.129362e+17	3.581551e-01	
1.157056e+02	1.478928e+01	1.089639e+00	1.792568e+00	-7.491600e+01	2.296674e+05	9.083622e+04	2.806854e+02	-8.716357e+17	2.013093e-01	
1.157303e+02	1.611146e+01	1.086899e+00	6.810542e-01	-7.657607e+01	2.293572e+05	9.066377e+04	2.808589e+02	-8.726930e+17	2.061744e-01	
1.157614e+02	1.777553e+01	1.086025e+00	6.367396e-01	-7.709087e+01	2.292671e+05	9.061233e+04	2.809255e+02	-8.730084e+17	2.077018e-01	
1.158005e+02	1.986986e+01	1.086823e+00	4.522339e-01	-7.649595e+01	2.294575e+05	9.070612e+04	2.810096e+02	-8.724334e+17	2.059132e-01	
1.158497e+02	2.250574e+01	1.090610e+00	-2.476272e-01	-7.048558e+01	2.301391e+05	9.114453e+04	2.813873e+02	-8.697454e+17	1.889465e-01	
1.159117e+02	2.582308e+01	1.099661e+00	-1.793249e+00	-5.044785e+01	2.317625e+05	9.224154e+04	2.824302e+02	-8.630194e+17	1.339554e-01	
1.159896e+02	2.999791e+01	1.115449e+00	-5.821269e+00	-1.989440e+00	2.354127e+05	9.415828e+04	2.842185e+02	-8.512674e+17	1.604303e-02	
1.157000e+02	1.373776e+01	1.194247e+00	1.055924e+02	-3.177338e+01	2.475783e+05	9.699499e+04	2.734632e+02	-8.338750e+17	2.738221e-01	
1.157278e+02	1.478887e+01	1.089347e+00	2.051299e+00	-7.459150e+01	2.296535e+05	9.083913e+04	2.807698e+02	-8.716178e+17	2.004795e-01	
1.157628e+02	1.611086e+01	1.086860e+00	7.903879e-01	-7.627742e+01	2.293401e+05	9.066528e+04	2.808736e+02	-8.726838e+17	2.053752e-01	
1.158068e+02	1.777468e+01	1.086077e+00	7.323421e-01	-7.685774e+01	2.292504e+05	9.061229e+04	2.809118e+02	-8.730087e+17	2.070711e-01	
1.158622e+02	1.986870e+01	1.086796e+00	4.740206e-01	-7.594571e+01	2.294160e+05	9.070495e+04	2.810131e+02	-8.724405e+17	2.044364e-01	
1.159319e+02	2.250420e+01	1.090363e+00	-4.859389e-01	-6.931365e+01	2.300619e+05	9.114348e+04	2.814479e+02	-8.697518e+17	1.858305e-01	
1.160197e+02	2.582107e+01	1.099508e+00	-2.622861e+00	-4.937596e+01	2.317070e+05	9.223807e+04	2.824590e+02	-8.630407e+17	1.312227e-01	
1.161301e+02	2.999528e+01	1.115500e+00	-7.993427e+00	-1.958574e+00	2.354188e+05	9.415537e+04	2.841967e+02	-8.512853e+17	2.146209e-02	
1.157157e+02	1.373734e+01	1.187329e+00	9.341988e+01	-2.638243e+01	2.475054e+05	9.741485e+04	2.762471e+02	-8.313008e+17	2.412346e-01	
1.157527e+02	1.478821e+01	1.089118e+00	2.313410e+00	-7.421638e+01	2.296384e+05	9.084291e+04	2.808405e+02	-8.715947e+17	1.995096e-01	
1.157992e+02	1.610989e+01	1.086860e+00	8.961604e-01	-7.583257e+01	2.293225e+05	9.067064e+04	2.808902e+02	-8.726509e+17	2.041747e-01	
1.158577e+02	1.777333e+01	1.086157e+00	8.244508e-01	-7.643906e+01	2.292286e+05	9.061543e+04	2.809008e+02	-8.729894e+17	2.059345e-01	
1.159313e+02	1.986687e+01	1.086783e+00	4.691007e-01	-7.517473e+01	2.293661e+05	9.070641e+04	2.810211e+02	-8.724316e+17	2.023606e-01	
1.160240e+02	2.250176e+01	1.090152e+00	-7.627962e-01	-6.794256e+01	2.299771e+05	9.114384e+04	2.815036e+02	-8.697496e+17	1.821789e-01	
1.161406e+02	2.581787e+01	1.099349e+00	-3.535784e+00	-4.821050e+01	2.316439e+05	9.223246e+04	2.824826e+02	-8.630751e+17	1.283018e-01	
1.162874e+02	2.999112e+01	1.116550e+00	-1.021915e+01	-2.273207e+00	2.357027e+05	9.426144e+04	2.842493e+02	-8.506349e+17	2.727296e-02	
1.157333e+02	1.373672e+01	1.182580e+00	8.629289e+01	-2.480937e+01	2.477492e+05	9.773621e+04	2.782713e+02	-8.293304e+17	2.232099e-01	
1.157805e+02	1.478723e+01	1.088958e+00	2.595905e+00	-7.373589e+01	2.296147e+05	9.084606e+04	2.808915e+02	-8.715754e+17	1.982555e-01	
1.158399e+02	1.610846e+01	1.086852e+00	1.017354e+00	-7.513837e+01	2.292863e+05	9.067539e+04	2.809070e+02	-8.726218e+17	2.023055e-01	
1.159146e+02	1.777133e+01	1.086214e+00	9.384320e-01	-7.568025e+01	2.291813e+05	9.061779e+04	2.808936e+02	-8.729749e+17	2.038861e-01	
1.160087e+02	1.986415e+01	1.086741e+00	4.538318e-01	-7.410007e+01	2.292942e+05	9.070712e+04	2.810339e+02	-8.724272e+17	1.994706e-01	
1.161271e+02	2.249814e+01	1.089981e+00	-1.067678e+00	-6.628983e+01	2.298716e+05	9.114211e+04	2.815422e+02	-8.697602e+17	1.777748e-01	
1.162760e+02	2.581310e+01	1.099241e+00	-4.517355e+00	-4.689496e+01	2.315713e+05	9.222470e+04	2.824865e+02	-8.631227e+17	1.250540e-01	
1.164635e+02	2.998493e+01	1.115403e+00	-1.263881e+01	-1.681520e+00	2.353326e+05	9.410389e+04	2.840661e+02	-8.516009e+17	3.326079e-02	
1.157531e+02	1.373584e+01	1.130356e+00	7.110991e+01	-2.704805e+01	2.325285e+05	9.198727e+04	2.740035e+02	-8.645784e+17	1.994054e-01	
1.158117e+02	1.478583e+01	1.088875e+00	2.844147e+00	-7.315964e+01	2.295774e+05	9.084638e+04	2.809138e+02	-8.715734e+17	1.967400e-01	
1.158855e+02	1.610641e+01	1.086832e+00	1.162687e+00	-7.403699e+01	2.292251e+05	9.068107e+04	2.809299e+02	-8.725869e+17	1.993420e-01	
1.159784e+02	1.776846e+01	1.086211e+00	1.084764e+00	-7.437667e+01	2.290956e+05	9.061945e+04	2.808992e+02	-8.729648e+17	2.003784e-01	
1.160953e+02	1.986026e+01	1.086676e+00	4.366176e-01	-7.260254e+01	2.291933e+05	9.070715e+04	2.810510e+02	-8.724270e+17	1.954452e-01	
1.162425e+02	2.249295e+01	1.089871e+00	-1.393773e+00	-6.430220e+01	2.297470e+05	9.113968e+04	2.815633e+02	-8.697751e+17	1.724736e-01	
1.164277e+02	2.580629e+01	1.099220e+00	-5.556566e+00	-4.532358e+01	2.314780e+05	9.221182e+04	2.824525e+02	-8.632016e+17	1.212171e-01	
1.166607e+02	2.997607e+01	1.116279e+00	-1.543239e+01	-1.662520e+00	2.355253e+05	9.416696e+04	2.840334e+02	-8.512143e+17	4.046124e-02	
1.157751e+02	1.373460e+01	1.157944e+00	7.340506e+01	-3.044245e+01	2.406586e+05	9.517270e+04	2.767378e+02	-8.450478e+17	2.023133e-01	
1.158466e+02	1.478388e+01	1.088906e+00	3.108510e+00	-7.227678e+01	2.295216e+05	9.084740e+04	2.809090e+02	-8.715672e+17	1.943948e-01	
1.159366e+02	1.610356e+01	1.086770e+00	1.346549e+00	-7.234178e+01	2.291267e+05	9.068724e+04	2.809649e+02	-8.725491e+17	1.947863e-01	
1.160498e+02	1.776447e+01	1.086093e+00	1.280595e+00	-7.230805e+01	2.289565e+05	9.061952e+04	2.809300e+02	-8.729643e+17	1.948257e-01	
1.161923e+02	1.985484e+01	1.086568e+00	4.395294e-01	-7.038319e+01	2.290470e+05	9.070693e+04	2.810782e+02	-8.724284e+17	1.894806e-01	
1.163717e+02	2.248573e+01	1.089854e+00	-1.726701e+00	-6.197698e+01	2.296032e+05	9.113582e+04	2.815558e+02	-8.697988e+17	1.662671e-01	
1.165974e+02	2.579680e+01	1.099340e+00	-6.655266e+00	-4.341036e+01	2.313654e+05	9.219525e+04	2.823711e+02	-8.633032e+17	1.165880e-01	
1.168814e+02	2.996373e+01	1.117258e+00	-1.883998e+01	-2.007318e+00	2.356847e+05	9.420963e+04	2.839130e+02	-8.509526e+17	4.935635e-02	
1.157998e+02	1.373292e+01	1.145375e+00	6.936107e+01	-2.995741e+01	2.383892e+05	9.435892e+04	2.773824e+02	-8.500373e+17	1.942353e-01	
1.158857e+02	1.478121e+01	1.089044e+00	3.411055e+00	-7.083199e+01	2.294171e+05	9.084332e+04	2.808608e+02	-8.715921e+17	1.905457e-01	
1.159938e+02	1.609966e+01	1.086658e+00	1.583539e+00	-6.997095e+01	2.289917e+05	9.069512e+04	2.810184e+02	-8.725008e+17	1.884198e-01	
1.161297e+02	1.775903e+01	1.085929e+00	1.559266e+00	-6.940192e+01	2.287876e+05	9.062749e+04	2.809974e+02	-8.729155e+17	1.870193e-01	
1.163009e+02	1.984744e+01	1.086494e+00	5.181294e-01	-6.732249e+01	2.288690e+05	9.071326e+04	2.811168e+02	-8.723896e+17	1.812424e-01	
1.165163e+02	2.247588e+01	1.090012e+00	-2.052144e+00	-5.936947e+01	2.294508e+05	9.113281e+04	2.815056e+02	-8.698172e+17	1.592962e-01	
1.167873e+02	2.578386e+01	1.099543e+00	-7.787085e+00	-4.108535e+01	2.312482e+05	9.218121e+04	2.822760e+02	-8.633893e+17	1.110093e-01	
1.171285e+02	2.994689e+01	1.118660e+00	-2.199765e+01	-2.181515e+00	2.359221e+05	9.428149e+04	2.837735e+02	-8.505120e+17	5.752744e-02	
1.158275e+02	1.373065e+01	1.111824e+00	5.555993e+01	-3.628484e+01	2.334703e+05	9.259600e+04	2.804140e+02	-8.608461e+17	1.747916e-01	
1.159294e+02	1.477763e+01	1.089763e+00	4.027461e+00	-6.858974e+01	2.293641e+05	9.087924e+04	2.807865e+02	-8.713719e+17	1.845203e-01	
1.160577e+02	1.609442e+01	1.086281e+00	1.738078e+00	-6.765754e+01	2.287955e+05	9.067487e+04	2.810529e+02	-8.726250e+17	1.822556e-01	
1.162191e+02	1.775170e+01	1.085512e+00	1.782343e+00	-6.671713e+01	2.285306e+05	9.059156e+04	2.809938e+02	-8.731357e+17	1.798735e-01	
1.164223e+02	1.983749e+01	1.086406e+00	5.969872e-01	-6.468529e+01	2.286614e+05	9.069423e+04	2.810806e+02	-8.725062e+17	1.741703e-01	
1.166780e+02	2.246262e+01	1.090148e+00	-2.456257e+00	-5.726299e+01	2.292660e+05	9.110373e+04	2.813807e+02	-8.699955e+17	1.537087e-01	
1.169998e+02	2.576644e+01	1.098402e+00	-9.346415e+00	-3.864555e+01	2.307088e+05	9.199568e+04	2.820005e+02	-8.645268e+17	1.057097e-01	
1.174048e+02	2.992424e+01	1.108159e+00	-2.897729e+01	-1.651203e+00	2.325402e+05	9.286405e+04	2.821558e+02	-8.592026e+17	7.646677e-02	
3.980993e+02	1.904145e+00	1.623759e+00	2.253743e+02	1.802504e+01	3.454729e+05	1.318928e+05	2.734911e+02	-6.199090e+17	4.129081e-01	
3.030553e+00	3.293903e+01	2.751118e+00	1.047793e+02	-5.144350e+00	5.795883e+05	2.310353e+05	2.827565e+02	-1.204629e+16	1.112091e-01	
1.157747e+02	1.362909e+01	1.400037e+00	4.585231e+02	-1.521531e+02	3.204982e+05	9.485815e+04	2.281280e+02	-8.469764e+17	1.120402e+00	
1.157695e+02	1.371757e+01	1.173828e+00	1.518402e+02	-4.610031e+01	2.434909e+05	9.310601e+04	2.670649e+02	-8.577191e+17	4.056754e-01	
1.158263e+02	1.372502e+01	1.128282e+00	6.790517e+01	-3.630825e+01	2.368569e+05	9.369173e+04	2.795935e+02	-8.541280e+17	2.001621e-01	
1.161985e+02	1.350242e+01	1.321370e+00	3.802919e+02	-1.161116e+02	2.948421e+05	9.400656e+04	2.395395e+02	-8.521977e+17	9.534893e-01	
1.159084e+02	1.357185e+01	1.395794e+00	4.572321e+02	-1.500792e+02	3.182717e+05	9.412541e+04	2.270540e+02	-8.514690e+17	1.122089e+00	
1.158447e+02	1.365239e+01	1.355425e+00	4.062518e+02	-1.247829e+02	3.018887e+05	9.410535e+04	2.337666e+02	-8.515920e+17	1.005689e+00	
1.159292e+02	1.374221e+01	1.104732e+00	6.366942e+01	-4.579999e+01	2.307977e+05	9.120542e+04	2.779761e+02	-8.693721e+17	2.088264e-01	
1.161117e+02	1.359075e+01	1.257607e+00	2.972671e+02	-8.510463e+01	2.747586e+05	9.469827e+04	2.535366e+02	-8.479566e+17	7.572606e-01	
1.159975e+02	1.354523e+01	1.380381e+00	4.446284e+02	-1.432504e+02	3.129339e+05	9.355692e+04	2.282026e+02	-8.549545e+17	1.098603e+00	
1.158906e+02	1.370534e+01	1.127441e+00	1.196764e+02	-4.180398e+01	2.353122e+05	9.127416e+04	2.725822e+02	-8.689506e+17	3.339823e-01	
1.159873e+02	1.378027e+01	1.102456e+00	5.025239e+01	-4.847485e+01	2.307468e+05	9.141429e+04	2.791878e+02	-8.680914e+17	1.858834e-01	
1.159721e+02	1.365049e+01	1.229697e+00	2.552496e+02	-7.125640e+01	2.650910e+05	9.461411e+04	2.590607e+02	-8.484726e+17	6.566287e-01	
1.159756e+02	1.333573e+01	1.413188e+00	4.638720e+02	-1.584892e+02	3.223679e+05	9.493951e+04	2.261989e+02	-8.464776e+17	1.131060e+00	
1.160034e+02	1.372014e+01	1.117719e+00	9.420208e+01	-4.344338e+01	2.333315e+05	9.140703e+04	2.753535e+02	-8.681360e+17	2.742923e-01	
1.174243e+02	1.077554e+01	6.742781e-01	3.395366e+02	-8.937571e+00	1.663828e+05	3.233432e+04	1.614612e+02	-1.230323e+18	1.944113e+00	
1.159385e+02	1.348394e+01	1.405681e+00	4.636266e+02	-1.553853e+02	3.209009e+05	9.434207e+04	2.259760e+02	-8.501406e+17	1.134814e+00	
1.160704e+02	1.344050e+01	1.399414e+00	4.608563e+02	-1.535120e+02	3.191178e+05	9.392524e+04	2.259850e+02	-8.526963e+17	1.132363e+00	
1.160723e+02	1.378876e+01	1.098600e+00	5.357134e+01	-4.797528e+01	2.296349e+05	9.091250e+04	2.786298e+02	-8.711680e+17	1.923151e-01	
1.178636e+02	1.140702e+01	1.380904e+00	4.480882e+02	-1.749663e+02	3.147254e+05	9.237642e+04	2.252378e+02	-8.621924e+17	1.138287e+00	
1.182530e+02	1.056286e+01	1.364404e+00	4.441105e+02	-1.789630e+02	3.115785e+05	9.102523e+04	2.246272e+02	-8.704768e+17	1.148285e+00	
1.167626e+02	1.242856e+01	1.409519e+00	4.581510e+02	-1.674640e+02	3.211362e+05	9.469170e+04	2.261958e+02	-8.479969e+17	1.128455e+00	
1.170151e+02	1.137631e+01	6.860603e-01	3.438048e+02	-7.016693e+00	1.690548e+05	3.314946e+04	1.626888e+02	-1.225325e+18	1.927165e+00	
1.173375e+02	9.876492e+00	6.608888e-01	3.346179e+02	-1.018728e+01	1.633331e+05	3.141744e+04	1.600611e+02	-1.235945e+18	1.963526e+00	
1.163801e+02	1.231452e+01	7.060807e-01	3.509170e+02	-3.737489e+00	1.735963e+05	3.455391e+04	1.647731e+02	-1.216714e+18	1.898844e+00	
1.167718e+02	1.311373e+01	1.380874e+00	4.167672e+02	-1.368254e+02	3.107967e+05	9.644996e+04	2.351752e+02	-8.372167e+17	1.015848e+00	
1.161276e+02	1.329946e+01	1.401939e+00	4.626833e+02	-1.572565e+02	3.198890e+05	9.388772e+04	2.254879e+02	-8.529263e+17	1.138385e+00	
1.163154e+02	1.308481e+01	1.401737e+00	4.624506e+02	-1.593482e+02	3.199599e+05	9.384739e+04	2.254236e+02	-8.531736e+17	1.139777e+00	
1.161446e+02	1.369059e+01	1.132096e+00	1.250756e+02	-4.544456e+01	2.381688e+05	9.213897e+04	2.740335e+02	-8.636482e+17	3.482340e-01	
1.196671e+02	1.061102e+01	1.463371e+00	4.516709e+02	-1.671612e+02	3.297071e+05	1.001821e+05	2.305044e+02	-8.143339e+17	1.063066e+00	
1.172878e+02	1.206391e+01	1.400681e+00	4.537806e+02	-1.709671e+02	3.190114e+05	9.402854e+04	2.260289e+02	-8.520629e+17	1.129291e+00	
1.166606e+02	1.058446e+01	6.748072e-01	3.397801e+02	-7.687895e+00	1.664949e+05	3.236310e+04	1.614782e+02	-1.230147e+18	1.943704e+00	
1.165943e+02	1.191343e+01	6.976481e-01	3.479441e+02	-5.037917e+00	1.716803e+05	3.395822e+04	1.638899e+02	-1.220367e+18	1.910734e+00	
1.161092e+02	1.395715e+01	1.095989e+00	2.896419e+01	-5.550124e+01	2.301735e+05	9.135418e+04	2.806505e+02	-8.684599e+17	1.672144e-01	
1.170090e+02	8.599563e+00	6.428308e-01	3.278550e+02	-1.115060e+01	1.592377e+05	3.021403e+04	1.582543e+02	-1.243323e+18	1.989373e+00	
1.163228e+02	1.327604e+01	1.396401e+00	4.580510e+02	-1.550791e+02	3.179422e+05	9.368218e+04	2.258865e+02	-8.541865e+17	1.130005e+00	
1.160832e+02	1.251016e+01	7.112812e-01	3.527542e+02	-2.575883e+00	1.747797e+05	3.492091e+04	1.653057e+02	-1.214464e+18	1.891718e+00	
1.161208e+02	1.287859e+01	7.182645e-01	3.551694e+02	-2.015662e+00	1.763739e+05	3.542342e+04	1.660541e+02	-1.211383e+18	1.881876e+00	
1.174958e+02	1.269727e+01	1.357091e+00	4.080467e+02	-1.415802e+02	3.053590e+05	9.465142e+04	2.348343e+02	-8.482439e+17	1.018502e+00	
1.212321e+02	1.161908e+01	1.277579e+00	3.064553e+02	-8.178954e+01	2.794498e+05	9.603069e+04	2.530848e+02	-8.397873e+17	7.653245e-01	
1.210133e+02	9.349003e+00	1.602705e+00	4.737921e+02	-1.179257e+02	3.591926e+05	1.139292e+05	2.393453e+02	-7.300481e+17	9.656763e-01	
1.164218e+02	1.129249e+01	6.877536e-01	3.444611e+02	-5.844415e+00	1.694351e+05	3.325947e+04	1.628268e+02	-1.224651e+18	1.925150e+00	
1.233525e+02	1.003195e+01	1.411780e+00	4.446480e+02	-6.622416e+01	3.175490e+05	9.838944e+04	2.346525e+02	-8.253254e+17	1.019433e+00	
1.162098e+02	1.380047e+01	1.100476e+00	5.940897e+01	-4.731826e+01	2.305385e+05	9.116704e+04	2.789336e+02	-8.696074e+17	2.026544e-01	
1.160985e+02	9.654658e+00	6.620741e-01	3.351520e+02	-8.028432e+00	1.636084e+05	3.149210e+04	1.601543e+02	-1.235487e+18	1.962222e+00	
1.186660e+02	8.971915e+00	1.190406e+00	3.789025e+02	-6.765958e+01	2.616876e+05	7.978522e+04	2.256686e+02	-9.393916e+17	1.055530e+00	
1.164235e+02	1.271456e+01	1.402978e+00	4.592206e+02	-1.637003e+02	3.201437e+05	9.417507e+04	2.260105e+02	-8.511645e+17	1.133549e+00	
1.230072e+01	2.124477e+01	2.744062e+00	1.222121e+02	-1.733749e+01	5.782414e+05	2.301861e+05	2.824416e+02	-1.725285e+16	1.312624e-01	
1.683068e+01	1.934750e+01	2.741330e+00	1.274261e+02	-2.346575e+01	5.777560e+05	2.298776e+05	2.823442e+02	-1.914408e+16	1.379454e-01	
1.274066e+01	1.620471e+01	2.741117e+00	1.292116e+02	-1.550786e+01	5.776984e+05	2.298436e+05	2.823245e+02	-1.935229e+16	1.385681e-01	
2.143026e+01	1.779962e+01	2.737639e+00	1.341495e+02	-3.008216e+01	5.771002e+05	2.294593e+05	2.822103e+02	-2.170904e+16	1.466013e-01	
1.752628e+01	1.370622e+01	2.737794e+00	1.365276e+02	-1.952849e+01	5.771318e+05	2.294632e+05	2.821992e+02	-2.168484e+16	1.470609e-01	
1.190859e+02	1.279945e+01	1.196564e+00	2.352272e+02	-7.762886e+01	2.594495e+05	9.352408e+04	2.631668e+02	-8.551559e+17	6.258095e-01	
1.212353e+02	1.401934e+01	1.087244e+00	6.783876e+01	-3.703150e+01	2.287290e+05	9.039278e+04	2.799306e+02	-8.743545e+17	2.083615e-01	
1.231090e+02	1.601101e+01	1.064367e+00	3.099726e+01	-4.634365e+01	2.237659e+05	8.892226e+04	2.812954e+02	-8.833706e+17	1.531669e-01	
1.247337e+02	1.255251e+01	1.110465e+00	1.641621e+02	-2.359265e+01	2.367238e+05	8.973560e+04	2.720843e+02	-8.783838e+17	4.440312e-01	
1.267058e+02	1.849324e+01	1.037054e+00	7.506347e+00	-4.650374e+01	2.171057e+05	8.641435e+04	2.805615e+02	-8.987471e+17	1.329889e-01	
3.872610e+02	1.785229e+01	1.396236e+00	1.130584e+02	2.875292e+01	2.948242e+05	1.159803e+05	2.796849e+02	-7.174721e+17	2.450059e-01	
3.831903e+02	1.760311e+01	1.388413e+00	1.148398e+02	1.808261e+01	2.934980e+05	1.154523e+05	2.799803e+02	-7.207092e+17	2.454063e-01	
3.861372e+02	1.380019e+01	1.420683e+00	1.627081e+02	2.397263e+01	3.018479e+05	1.169313e+05	2.771260e+02	-7.116413e+17	3.410315e-01	
3.813066e+02	1.331757e+01	1.410840e+00	1.720167e+02	1.451016e+01	3.003180e+05	1.159027e+05	2.766047e+02	-7.179478e+17	3.607951e-01	
3.784474e+02	1.741992e+01	1.381073e+00	1.154621e+02	1.108416e+01	2.921791e+05	1.149232e+05	2.801785e+02	-7.239532e+17	2.460680e-01	
3.763879e+02	1.310119e+01	1.403479e+00	1.767086e+02	9.310635e+00	2.990816e+05	1.151705e+05	2.762987e+02	-7.224372e+17	3.719822e-01	
3.735443e+02	1.730311e+01	1.375830e+00	1.154562e+02	6.972412e+00	2.912569e+05	1.145579e+05	2.803521e+02	-7.261929e+17	2.462345e-01	
3.714291e+02	1.298828e+01	1.397906e+00	1.791953e+02	6.019262e+00	2.981098e+05	1.146446e+05	2.761336e+02	-7.256616e+17	3.785225e-01	
3.685879e+02	1.723209e+01	1.371567e+00	1.151480e+02	4.445849e+00	2.904917e+05	1.142604e+05	2.804931e+02	-7.280174e+17	2.460139e-01	
3.664508e+02	1.292664e+01	1.393593e+00	1.806093e+02	3.833613e+00	2.974101e+05	1.142805e+05	2.761086e+02	-7.278937e+17	3.825779e-01	
3.636099e+02	1.719075e+01	1.368250e+00	1.148116e+02	2.767186e+00	2.899618e+05	1.140568e+05	2.806721e+02	-7.292654e+17	2.456996e-01	
3.614631e+02	1.289318e+01	1.390005e+00	1.813909e+02	2.362801e+00	2.969019e+05	1.140258e+05	2.762042e+02	-7.294556e+17	3.851045e-01	
3.586228e+02	1.716778e+01	1.365391e+00	1.145075e+02	1.682810e+00	2.895603e+05	1.139031e+05	2.808808e+02	-7.302078e+17	2.454259e-01	
3.564710e+02	1.287551e+01	1.386954e+00	1.818265e+02	1.416315e+00	2.965613e+05	1.138568e+05	2.764015e+02	-7.304915e+17	3.867191e-01	
3.536318e+02	1.715564e+01	1.363108e+00	1.143045e+02	9.435384e-01	2.893397e+05	1.138187e+05	2.811429e+02	-7.307252e+17	2.452688e-01	
3.514772e+02	1.286654e+01	1.384214e+00	1.819968e+02	8.788926e-01	2.963340e+05	1.137477e+05	2.766833e+02	-7.311608e+17	3.876431e-01	
3.486394e+02	1.714953e+01	1.361009e+00	1.141449e+02	4.985650e-01	2.891869e+05	1.137601e+05	2.814314e+02	-7.310845e+17	2.451722e-01	
3.464825e+02	1.286219e+01	1.381606e+00	1.818948e+02	7.291820e-01	2.961510e+05	1.136709e+05	2.770184e+02	-7.316316e+17	3.879208e-01	
3.436463e+02	1.714662e+01	1.358773e+00	1.139225e+02	3.649988e-01	2.889891e+05	1.136853e+05	2.817091e+02	-7.315432e+17	2.449751e-01	
3.414876e+02	1.286019e+01	1.378808e+00	1.815222e+02	9.346870e-01	2.958899e+05	1.135763e+05	2.773496e+02	-7.322115e+17	3.876822e-01	
3.386529e+02	1.714531e+01	1.355978e+00	1.135640e+02	6.273777e-01	2.885996e+05	1.135376e+05	2.819230e+02	-7.324490e+17	2.446173e-01	
3.364925e+02	1.285932e+01	1.375863e+00	1.810138e+02	1.392073e+00	2.955236e+05	1.134462e+05	2.776248e+02	-7.330093e+17	3.872380e-01	
3.336595e+02	1.714476e+01	1.352742e+00	1.131171e+02	1.242283e+00	2.880351e+05	1.133220e+05	2.820609e+02	-7.337705e+17	2.441888e-01	
3.314974e+02	1.285896e+01	1.372724e+00	1.805279e+02	1.936858e+00	2.949925e+05	1.132482e+05	2.777740e+02	-7.342233e+17	3.869885e-01	
3.286660e+02	1.714454e+01	1.349153e+00	1.127570e+02	1.970186e+00	2.873171e+05	1.130415e+05	2.821112e+02	-7.354904e+17	2.440597e-01	
3.265023e+02	1.285883e+01	1.369165e+00	1.801093e+02	2.272538e+00	2.942415e+05	1.129573e+05	2.777806e+02	-7.360069e+17	3.870986e-01	
3.236726e+02	1.714446e+01	1.345750e+00	1.124821e+02	2.312226e+00	2.866216e+05	1.127675e+05	2.821390e+02	-7.371703e+17	2.440827e-01	
3.215072e+02	1.285878e+01	1.365660e+00	1.799897e+02	2.275389e+00	2.934771e+05	1.126457e+05	2.777253e+02	-7.379174e+17	3.878731e-01	
3.186791e+02	1.714443e+01	1.342886e+00	1.123014e+02	2.207911e+00	2.860681e+05	1.125482e+05	2.821909e+02	-7.385148e+17	2.441834e-01	
3.165122e+02	1.285876e+01	1.362673e+00	1.801955e+02	2.190034e+00	2.928624e+05	1.123786e+05	2.776741e+02	-7.395550e+17	3.892014e-01	
3.136856e+02	1.714442e+01	1.339965e+00	1.120590e+02	2.185977e+00	2.854727e+05	1.123141e+05	2.822178e+02	-7.399502e+17	2.441751e-01	
3.115171e+02	1.285876e+01	1.360177e+00	1.805394e+02	2.284039e+00	2.923593e+05	1.121503e+05	2.776186e+02	-7.409547e+17	3.907013e-01	
3.086922e+02	1.714442e+01	1.336917e+00	1.117567e+02	2.395827e+00	2.847825e+05	1.120437e+05	2.821803e+02	-7.416082e+17	2.440976e-01	
3.065220e+02	1.285875e+01	1.357849e+00	1.807961e+02	2.589623e+00	2.918200e+05	1.119124e+05	2.775048e+02	-7.424130e+17	3.920168e-01	
3.036987e+02	1.714442e+01	1.333888e+00	1.113791e+02	2.581339e+00	2.840285e+05	1.117504e+05	2.820806e+02	-7.434067e+17	2.438778e-01	
3.015269e+02	1.285875e+01	1.355532e+00	1.808552e+02	2.885114e+00	2.911750e+05	1.116428e+05	2.773095e+02	-7.440661e+17	3.929634e-01	
2.987053e+02	1.714442e+01	1.331339e+00	1.108704e+02	2.472429e+00	2.833494e+05	1.114923e+05	2.819679e+02	-7.449893e+17	2.432725e-01	
2.965318e+02	1.285875e+01	1.353079e+00	1.807189e+02	2.901249e+00	2.903776e+05	1.113224e+05	2.770149e+02	-7.460307e+17	3.935889e-01	
2.937118e+02	1.714442e+01	1.328553e+00	1.101511e+02	2.241995e+00	2.825594e+05	1.111965e+05	2.818095e+02	-7.468029e+17	2.422591e-01	
2.915367e+02	1.285875e+01	1.350400e+00	1.803890e+02	2.747532e+00	2.894512e+05	1.109600e+05	2.766607e+02	-7.482526e+17	3.938964e-01	
2.887183e+02	1.714442e+01	1.325300e+00	1.093521e+02	2.126862e+00	2.816190e+05	1.108424e+05	2.816017e+02	-7.489738e+17	2.411767e-01	
2.865416e+02	1.285875e+01	1.347796e+00	1.802075e+02	2.528822e+00	2.885689e+05	1.106077e+05	2.763152e+02	-7.504128e+17	3.944999e-01	
2.837249e+02	1.714442e+01	1.321788e+00	1.087496e+02	2.234831e+00	2.806165e+05	1.104564e+05	2.813667e+02	-7.513404e+17	2.405908e-01	
2.815465e+02	1.285875e+01	1.345127e+00	1.802771e+02	2.411068e+00	2.877375e+05	1.102619e+05	2.759980e+02	-7.525327e+17	3.956591e-01	
2.787314e+02	1.714442e+01	1.318396e+00	1.084739e+02	2.546344e+00	2.796869e+05	1.100888e+05	2.811518e+02	-7.535942e+17	2.407058e-01	
2.765514e+02	1.285875e+01	1.342567e+00	1.805791e+02	2.590591e+00	2.870172e+05	1.099482e+05	2.757375e+02	-7.544561e+17	3.972702e-01	
2.737380e+02	1.714442e+01	1.315174e+00	1.084734e+02	3.006232e+00	2.788496e+05	1.097491e+05	2.809709e+02	-7.556768e+17	2.413981e-01	
2.715563e+02	1.285875e+01	1.340184e+00	1.810069e+02	2.977904e+00	2.863942e+05	1.096670e+05	2.755211e+02	-7.561805e+17	3.990891e-01	
2.687445e+02	1.714442e+01	1.312362e+00	1.086428e+02	3.413548e+00	2.781729e+05	1.094686e+05	2.808532e+02	-7.573967e+17	2.423705e-01	
2.665612e+02	1.285875e+01	1.337917e+00	1.814644e+02	3.315760e+00	2.858285e+05	1.094073e+05	2.753345e+02	-7.577727e+17	4.009241e-01	
2.637510e+02	1.714442e+01	1.310017e+00	1.087385e+02	3.428716e+00	2.776532e+05	1.092543e+05	2.808051e+02	-7.587106e+17	2.430398e-01	
2.615661e+02	1.285875e+01	1.335764e+00	1.818608e+02	3.427220e+00	2.853032e+05	1.091675e+05	2.751739e+02	-7.592426e+17	4.025692e-01	
2.587576e+02	1.714442e+01	1.307586e+00	1.085217e+02	3.180566e+00	2.771005e+05	1.090373e+05	2.807685e+02	-7.600410e+17	2.430056e-01	
2.565710e+02	1.285875e+01	1.333567e+00	1.821378e+02	3.429068e+00	2.847488e+05	1.089225e+05	2.750087e+02	-7.607448e+17	4.039678e-01	
2.537641e+02	1.714442e+01	1.304871e+00	1.079871e+02	3.045670e+00	2.764489e+05	1.087908e+05	2.807166e+02	-7.615523e+17	2.423262e-01	
2.515759e+02	1.285875e+01	1.331422e+00	1.823650e+02	3.447999e+00	2.841889e+05	1.086781e+05	2.748335e+02	-7.622436e+17	4.052531e-01	
2.487706e+02	1.714442e+01	1.301835e+00	1.072775e+02	3.105313e+00	2.756998e+05	1.085104e+05	2.806460e+02	-7.632716e+17	2.413309e-01	
2.465808e+02	1.285875e+01	1.329101e+00	1.825626e+02	3.452122e+00	2.835625e+05	1.084079e+05	2.746291e+02	-7.638999e+17	4.065519e-01	
2.437772e+02	1.714442e+01	1.298190e+00	1.064367e+02	3.063931e+00	2.747790e+05	1.081648e+05	2.805378e+02	-7.653903e+17	2.401568e-01	
2.415857e+02	1.285875e+01	1.326181e+00	1.826366e+02	3.298514e+00	2.827580e+05	1.080712e+05	2.743788e+02	-7.659647e+17	4.077916e-01	
2.387837e+02	1.714442e+01	1.294556e+00	1.054764e+02	2.695843e+00	2.738852e+05	1.078342e+05	2.804654e+02	-7.674175e+17	2.386681e-01	
2.365906e+02	1.285875e+01	1.322238e+00	1.824492e+02	2.916477e+00	2.816950e+05	1.076417e+05	2.741032e+02	-7.685981e+17	4.087788e-01	
2.337903e+02	1.714442e+01	1.290831e+00	1.045497e+02	2.299519e+00	2.730066e+05	1.075082e+05	2.804246e+02	-7.694161e+17	2.372512e-01	
2.315955e+02	1.285875e+01	1.317964e+00	1.823472e+02	2.404884e+00	2.806424e+05	1.072104e+05	2.738904e+02	-7.712424e+17	4.100179e-01	
2.287968e+02	1.714442e+01	1.286500e+00	1.037627e+02	2.191821e+00	2.719980e+05	1.071247e+05	2.803648e+02	-7.717678e+17	2.362787e-01	
2.266004e+02	1.285875e+01	1.313564e+00	1.824981e+02	2.116616e+00	2.796671e+05	1.067951e+05	2.737436e+02	-7.737882e+17	4.118341e-01	
2.238033e+02	1.714442e+01	1.281521e+00	1.033124e+02	2.580862e+00	2.708460e+05	1.066716e+05	2.802637e+02	-7.745455e+17	2.362307e-01	
2.216053e+02	1.285875e+01	1.309119e+00	1.829187e+02	2.382220e+00	2.787476e+05	1.063865e+05	2.736218e+02	-7.762939e+17	4.142840e-01	
2.188099e+02	1.714442e+01	1.276323e+00	1.032479e+02	3.414075e+00	2.696754e+05	1.061979e+05	2.801553e+02	-7.774500e+17	2.371462e-01	
2.166102e+02	1.285875e+01	1.304544e+00	1.836046e+02	3.124773e+00	2.778089e+05	1.059539e+05	2.734650e+02	-7.789462e+17	4.174407e-01	
2.138164e+02	1.714442e+01	1.270837e+00	1.035328e+02	4.597375e+00	2.684708e+05	1.056981e+05	2.800405e+02	-7.805146e+17	2.389810e-01	
2.116151e+02	1.285875e+01	1.299729e+00	1.847327e+02	4.041123e+00	2.768307e+05	1.054785e+05	2.732465e+02	-7.818608e+17	4.217695e-01	
2.088230e+02	1.714442e+01	1.264991e+00	1.041164e+02	5.865857e+00	2.672306e+05	1.051729e+05	2.799367e+02	-7.837344e+17	2.416281e-01	
2.066200e+02	1.285876e+01	1.294373e+00	1.864702e+02	4.858123e+00	2.757826e+05	1.049367e+05	2.729680e+02	-7.851825e+17	4.277591e-01	
2.038295e+02	1.714442e+01	1.258847e+00	1.047810e+02	6.734001e+00	2.659996e+05	1.046483e+05	2.799001e+02	-7.869507e+17	2.444898e-01	
2.016249e+02	1.285876e+01	1.288420e+00	1.887364e+02	5.434695e+00	2.746830e+05	1.043391e+05	2.726675e+02	-7.888464e+17	4.352303e-01	
1.988361e+02	1.714443e+01	1.252457e+00	1.052504e+02	7.041257e+00	2.647890e+05	1.041387e+05	2.799581e+02	-7.900752e+17	2.468550e-01	
1.966299e+02	1.285877e+01	1.281717e+00	1.912553e+02	5.769372e+00	2.734780e+05	1.036783e+05	2.723574e+02	-7.928985e+17	4.436159e-01	